<!-- TimeStep 6 Computed 2021-08-30 at 9:26:11 -->
<VTKFile type="UnstructuredGrid" version="0.1" byte_order="LittleEndian">
<UnstructuredGrid>
<Piece NumberOfPoints="658" NumberOfCells="1187">
<Points>
 <DataArray type="Float64" NumberOfComponents="3" format="ascii"> 3.225000e-02 1.380000e-02 0.000000e+00 3.850000e-02 2.000000e-03 0.000000e+00 1.790000e-02 2.000000e-03 0.000000e+00 3.850000e-02 3.000000e-02 0.000000e+00 1.610000e-02 5.000000e-04 0.000000e+00 -2.400000e-02 3.000000e-02 0.000000e+00 0.000000e+00 0.000000e+00 0.000000e+00 -2.400000e-02 0.000000e+00 0.000000e+00 3.209060e-02 1.520260e-02 0.000000e+00 3.166140e-02 1.644790e-02 0.000000e+00 3.086510e-02 1.772340e-02 0.000000e+00 2.972250e-02 1.882050e-02 0.000000e+00 2.860520e-02 1.948120e-02 0.000000e+00 2.719700e-02 1.993430e-02 0.000000e+00 2.590380e-02 2.004930e-02 0.000000e+00 2.457020e-02 1.988430e-02 0.000000e+00 2.332460e-02 1.944840e-02 0.000000e+00 2.208010e-02 1.866800e-02 0.000000e+00 2.105550e-02 1.762290e-02 0.000000e+00 2.030070e-02 1.636520e-02 0.000000e+00 1.988720e-02 1.510250e-02 0.000000e+00 1.975010e-02 1.376650e-02 0.000000e+00 1.990830e-02 1.240220e-02 0.000000e+00 2.036540e-02 1.109550e-02 0.000000e+00 2.111820e-02 9.897330e-03 0.000000e+00 2.206020e-02 8.948140e-03 0.000000e+00 2.327140e-02 8.177090e-03 0.000000e+00 2.473380e-02 7.679600e-03 0.000000e+00 2.609570e-02 7.550730e-03 0.000000e+00 2.739940e-02 7.708680e-03 0.000000e+00 2.878200e-02 8.203300e-03 0.000000e+00 2.990320e-02 8.918690e-03 0.000000e+00 3.088920e-02 9.906670e-03 0.000000e+00 3.160900e-02 1.104290e-02 0.000000e+00 3.210220e-02 1.244870e-02 0.000000e+00 -2.400000e-02 2.335620e-02 0.000000e+00 -2.400000e-02 1.701100e-02 0.000000e+00 -2.400000e-02 1.072240e-02 0.000000e+00 -2.400000e-02 4.857510e-03 0.000000e+00 2.555380e-03 7.935950e-05 0.000000e+00 4.875910e-03 1.514260e-04 0.000000e+00 6.963700e-03 2.162640e-04 0.000000e+00 8.859870e-03 2.751510e-04 0.000000e+00 1.057630e-02 3.284580e-04 0.000000e+00 1.216970e-02 3.779410e-04 0.000000e+00 1.361520e-02 4.228320e-04 0.000000e+00 1.491400e-02 4.631670e-04 0.000000e+00 3.513720e-02 3.000000e-02 0.000000e+00 3.240430e-02 3.000000e-02 0.000000e+00 2.925060e-02 3.000000e-02 0.000000e+00 2.634890e-02 3.000000e-02 0.000000e+00 2.370540e-02 3.000000e-02 0.000000e+00 2.076670e-02 3.000000e-02 0.000000e+00 1.724780e-02 3.000000e-02 0.000000e+00 1.387080e-02 3.000000e-02 0.000000e+00 1.012770e-02 3.000000e-02 0.000000e+00 5.994200e-03 3.000000e-02 0.000000e+00 1.449760e-03 3.000000e-02 0.000000e+00 -3.587440e-03 3.000000e-02 0.000000e+00 -1.004840e-02 3.000000e-02 0.000000e+00 -1.697880e-02 3.000000e-02 0.000000e+00 1.699120e-02 1.242700e-03 0.000000e+00 3.850000e-02 5.026050e-03 0.000000e+00 3.850000e-02 7.576210e-03 0.000000e+00 3.850000e-02 9.994300e-03 0.000000e+00 3.850000e-02 1.226100e-02 0.000000e+00 3.850000e-02 1.414740e-02 0.000000e+00 3.850000e-02 1.624580e-02 0.000000e+00 3.850000e-02 1.834310e-02 0.000000e+00 3.850000e-02 2.066490e-02 0.000000e+00 3.850000e-02 2.323650e-02 0.000000e+00 3.850000e-02 2.633950e-02 0.000000e+00 1.914730e-02 2.000000e-03 0.000000e+00 2.068130e-02 2.000000e-03 0.000000e+00 2.253900e-02 2.000000e-03 0.000000e+00 2.480250e-02 2.000000e-03 0.000000e+00 2.727520e-02 2.000000e-03 0.000000e+00 3.001300e-02 2.000000e-03 0.000000e+00 3.284600e-02 2.000000e-03 0.000000e+00 3.556410e-02 2.000000e-03 0.000000e+00 -2.352000e-02 0.000000e+00 0.000000e+00 -2.304000e-02 0.000000e+00 0.000000e+00 -2.256000e-02 0.000000e+00 0.000000e+00 -2.208000e-02 0.000000e+00 0.000000e+00 -2.160000e-02 0.000000e+00 0.000000e+00 -2.112000e-02 0.000000e+00 0.000000e+00 -2.064000e-02 0.000000e+00 0.000000e+00 -2.016000e-02 0.000000e+00 0.000000e+00 -1.968000e-02 0.000000e+00 0.000000e+00 -1.920000e-02 0.000000e+00 0.000000e+00 -1.872000e-02 0.000000e+00 0.000000e+00 -1.824000e-02 0.000000e+00 0.000000e+00 -1.776000e-02 0.000000e+00 0.000000e+00 -1.728000e-02 0.000000e+00 0.000000e+00 -1.680000e-02 0.000000e+00 0.000000e+00 -1.632000e-02 0.000000e+00 0.000000e+00 -1.584000e-02 0.000000e+00 0.000000e+00 -1.536000e-02 0.000000e+00 0.000000e+00 -1.488000e-02 0.000000e+00 0.000000e+00 -1.440000e-02 0.000000e+00 0.000000e+00 -1.392000e-02 0.000000e+00 0.000000e+00 -1.344000e-02 0.000000e+00 0.000000e+00 -1.296000e-02 0.000000e+00 0.000000e+00 -1.248000e-02 0.000000e+00 0.000000e+00 -1.200000e-02 0.000000e+00 0.000000e+00 -1.152000e-02 0.000000e+00 0.000000e+00 -1.104000e-02 0.000000e+00 0.000000e+00 -1.056000e-02 0.000000e+00 0.000000e+00 -1.008000e-02 0.000000e+00 0.000000e+00 -9.600000e-03 0.000000e+00 0.000000e+00 -9.120000e-03 0.000000e+00 0.000000e+00 -8.640000e-03 0.000000e+00 0.000000e+00 -8.160000e-03 0.000000e+00 0.000000e+00 -7.680000e-03 0.000000e+00 0.000000e+00 -7.200000e-03 0.000000e+00 0.000000e+00 -6.720000e-03 0.000000e+00 0.000000e+00 -6.240000e-03 0.000000e+00 0.000000e+00 -5.760000e-03 0.000000e+00 0.000000e+00 -5.280000e-03 0.000000e+00 0.000000e+00 -4.800000e-03 0.000000e+00 0.000000e+00 -4.320000e-03 0.000000e+00 0.000000e+00 -3.840000e-03 0.000000e+00 0.000000e+00 -3.360000e-03 0.000000e+00 0.000000e+00 -2.880000e-03 0.000000e+00 0.000000e+00 -2.400000e-03 0.000000e+00 0.000000e+00 -1.920000e-03 0.000000e+00 0.000000e+00 -1.440000e-03 0.000000e+00 0.000000e+00 -9.600000e-04 0.000000e+00 0.000000e+00 -4.800000e-04 0.000000e+00 0.000000e+00 -2.340000e-02 5.208130e-04 0.000000e+00 -2.232960e-02 4.618260e-04 0.000000e+00 -2.136950e-02 4.810430e-04 0.000000e+00 -2.041540e-02 4.927590e-04 0.000000e+00 -1.945300e-02 4.966680e-04 0.000000e+00 -1.848070e-02 4.958900e-04 0.000000e+00 -1.751710e-02 4.691530e-04 0.000000e+00 -1.656600e-02 4.678350e-04 0.000000e+00 -1.561650e-02 4.775930e-04 0.000000e+00 -1.465390e-02 4.891080e-04 0.000000e+00 -1.370270e-02 4.971550e-04 0.000000e+00 -1.272340e-02 4.842530e-04 0.000000e+00 -1.178010e-02 4.967790e-04 0.000000e+00 -1.080540e-02 4.845440e-04 0.000000e+00 -9.864580e-03 4.765300e-04 0.000000e+00 -8.865750e-03 4.840670e-04 0.000000e+00 -7.905730e-03 5.011730e-04 0.000000e+00 -6.950840e-03 4.922920e-04 0.000000e+00 -6.019280e-03 4.246020e-04 0.000000e+00 -5.025350e-03 4.728720e-04 0.000000e+00 -4.065420e-03 4.835660e-04 0.000000e+00 -3.128960e-03 4.451670e-04 0.000000e+00 -2.171430e-03 4.762830e-04 0.000000e+00 -1.187460e-03 5.232410e-04 0.000000e+00 -1.169200e-04 6.148440e-04 0.000000e+00 5.857940e-03 1.696520e-03 0.000000e+00 9.466970e-03 1.890640e-03 0.000000e+00 1.285950e-02 1.842540e-03 0.000000e+00 1.567970e-02 1.589100e-03 0.000000e+00 1.654450e-02 2.586790e-03 0.000000e+00 1.870650e-02 3.039180e-03 0.000000e+00 2.161510e-02 3.508730e-03 0.000000e+00 2.644280e-02 3.572340e-03 0.000000e+00 3.127720e-02 3.918880e-03 0.000000e+00 3.629790e-02 5.896780e-03 0.000000e+00 3.653930e-02 1.078160e-02 0.000000e+00 3.658270e-02 1.517420e-02 0.000000e+00 3.649690e-02 1.966800e-02 0.000000e+00 3.564140e-02 2.453050e-02 0.000000e+00 3.471780e-02 2.738170e-02 0.000000e+00 3.097490e-02 2.763820e-02 0.000000e+00 2.500050e-02 2.778260e-02 0.000000e+00 1.911390e-02 2.734780e-02 0.000000e+00 1.195580e-02 2.690690e-02 0.000000e+00 3.452650e-03 2.633780e-02 0.000000e+00 -7.324260e-03 2.613160e-02 0.000000e+00 -1.270890e-02 2.610200e-02 0.000000e+00 -1.842590e-02 2.481480e-02 0.000000e+00 -2.078380e-02 2.023790e-02 0.000000e+00 3.351880e-02 1.299650e-02 0.000000e+00 3.321610e-02 1.125410e-02 0.000000e+00 3.240270e-02 9.708370e-03 0.000000e+00 3.124550e-02 8.531210e-03 0.000000e+00 2.994440e-02 7.484320e-03 0.000000e+00 2.846950e-02 6.692040e-03 0.000000e+00 2.682410e-02 6.398290e-03 0.000000e+00 2.522120e-02 6.457060e-03 0.000000e+00 2.358330e-02 6.768300e-03 0.000000e+00 2.202220e-02 7.395140e-03 0.000000e+00 2.065990e-02 8.488800e-03 0.000000e+00 1.961080e-02 9.755280e-03 0.000000e+00 1.888420e-02 1.131290e-02 0.000000e+00 1.849530e-02 1.294410e-02 0.000000e+00 1.849360e-02 1.454180e-02 0.000000e+00 1.881370e-02 1.618350e-02 0.000000e+00 1.956540e-02 1.777080e-02 0.000000e+00 2.064850e-02 1.913430e-02 0.000000e+00 2.199860e-02 2.018520e-02 0.000000e+00 2.351120e-02 2.085000e-02 0.000000e+00 2.512340e-02 2.121420e-02 0.000000e+00 2.667170e-02 2.118690e-02 0.000000e+00 2.831550e-02 2.085570e-02 0.000000e+00 2.991870e-02 2.021780e-02 0.000000e+00 3.132950e-02 1.919600e-02 0.000000e+00 3.236480e-02 1.776990e-02 0.000000e+00 3.311520e-02 1.621600e-02 0.000000e+00 3.347840e-02 1.467100e-02 0.000000e+00 -2.284400e-02 4.893670e-04 0.000000e+00 -2.185120e-02 4.651270e-04 0.000000e+00 -2.087950e-02 4.954800e-04 0.000000e+00 -1.992730e-02 4.905700e-04 0.000000e+00 -1.896440e-02 5.146960e-04 0.000000e+00 -1.799490e-02 4.750100e-04 0.000000e+00 -1.705020e-02 4.652250e-04 0.000000e+00 -1.607800e-02 4.701420e-04 0.000000e+00 -1.512950e-02 4.852050e-04 0.000000e+00 -1.419440e-02 4.972290e-04 0.000000e+00 -1.320410e-02 4.845360e-04 0.000000e+00 -1.225140e-02 4.886650e-04 0.000000e+00 -1.130790e-02 4.924130e-04 0.000000e+00 -1.033120e-02 4.774360e-04 0.000000e+00 -9.365120e-03 4.775410e-04 0.000000e+00 -8.389860e-03 4.925440e-04 0.000000e+00 -7.442720e-03 5.065380e-04 0.000000e+00 -6.466490e-03 4.625650e-04 0.000000e+00 -5.527350e-03 4.204680e-04 0.000000e+00 -4.553670e-03 4.855930e-04 0.000000e+00 -3.599350e-03 4.758930e-04 0.000000e+00 -2.637330e-03 4.397930e-04 0.000000e+00 -1.676010e-03 4.983490e-04 0.000000e+00 -6.774770e-04 5.559640e-04 0.000000e+00 4.116400e-03 1.544720e-03 0.000000e+00 7.691210e-03 1.775840e-03 0.000000e+00 1.126030e-02 1.890640e-03 0.000000e+00 1.429970e-02 1.759220e-03 0.000000e+00 1.756480e-02 3.582850e-03 0.000000e+00 1.998660e-02 3.276390e-03 0.000000e+00 2.393340e-02 3.733490e-03 0.000000e+00 2.887110e-02 3.696960e-03 0.000000e+00 3.388150e-02 4.409110e-03 0.000000e+00 3.644040e-02 8.532590e-03 0.000000e+00 3.666220e-02 1.303330e-02 0.000000e+00 3.624470e-02 1.730480e-02 0.000000e+00 3.612270e-02 2.204020e-02 0.000000e+00 1.561920e-02 2.705730e-02 0.000000e+00 2.783560e-02 2.771860e-02 0.000000e+00 2.222260e-02 2.767250e-02 0.000000e+00 7.971510e-03 2.667810e-02 
[...]
<PointData Scalars="" Vectors="DisplacementVector " Tensors="IST_StressTensor IST_StrainTensor " >
 <DataArray type="Float64" Name="DisplacementVector" NumberOfComponents="3" format="ascii"> -5.767115e-06 4.480631e-05 0.000000e+00 7.421977e-06 5.185801e-05 0.000000e+00 7.348655e-06 2.717046e-05 0.000000e+00 -2.403978e-05 5.186988e-05 0.000000e+00 8.933286e-06 2.492146e-05 0.000000e+00 -1.636607e-05 -7.170608e-06 0.000000e+00 6.409677e-06 0.000000e+00 0.000000e+00 0.000000e+00 0.000000e+00 0.000000e+00 -7.276593e-06 4.461715e-05 0.000000e+00 -8.624165e-06 4.413065e-05 0.000000e+00 -1.001872e-05 4.322978e-05 0.000000e+00 -1.124038e-05 4.192544e-05 0.000000e+00 -1.200069e-05 4.062260e-05 0.000000e+00 -1.254300e-05 3.894292e-05 0.000000e+00 -1.270576e-05 3.736240e-05 0.000000e+00 -1.255392e-05 3.569634e-05 0.000000e+00 -1.209901e-05 3.412005e-05 0.000000e+00 -1.126473e-05 3.251811e-05 0.000000e+00 -1.013571e-05 3.117670e-05 0.000000e+00 -8.769474e-06 3.017667e-05 0.000000e+00 -7.386754e-06 2.962780e-05 0.000000e+00 -5.914130e-06 2.945541e-05 0.000000e+00 -4.398711e-06 2.968480e-05 0.000000e+00 -2.930148e-06 3.031858e-05 0.000000e+00 -1.563723e-06 3.134637e-05 0.000000e+00 -4.649036e-07 3.261428e-05 0.000000e+00 4.338541e-07 3.421415e-05 0.000000e+00 9.997872e-07 3.608735e-05 0.000000e+00 1.139515e-06 3.778828e-05 0.000000e+00 9.469708e-07 3.936005e-05 0.000000e+00 3.668282e-07 4.098338e-05 0.000000e+00 -4.471623e-07 4.225747e-05 0.000000e+00 -1.545724e-06 4.335035e-05 0.000000e+00 -2.790185e-06 4.413269e-05 0.000000e+00 -4.312789e-06 4.465814e-05 0.000000e+00 -1.207719e-05 -7.099603e-06 0.000000e+00 -7.585943e-06 -6.540146e-06 0.000000e+00 -3.438035e-06 -4.984948e-06 0.000000e+00 -7.839551e-07 -2.541291e-06 0.000000e+00 7.606943e-06 7.007056e-06 0.000000e+00 7.880931e-06 1.040140e-05 0.000000e+00 8.147728e-06 1.324557e-05 0.000000e+00 8.378915e-06 1.571643e-05 0.000000e+00 8.570731e-06 1.791682e-05 0.000000e+00 8.724362e-06 1.994959e-05 0.000000e+00 8.836815e-06 2.179061e-05 0.000000e+00 8.907775e-06 2.343974e-05 0.000000e+00 -2.404861e-05 4.800511e-05 0.000000e+00 -2.406870e-05 4.485408e-05 0.000000e+00 -2.410835e-05 4.116877e-05 0.000000e+00 -2.413022e-05 3.770168e-05 0.000000e+00 -2.410158e-05 3.446880e-05 0.000000e+00 -2.397043e-05 3.081397e-05 0.000000e+00 -2.363840e-05 2.643513e-05 0.000000e+00 -2.313312e-05 2.231971e-05 0.000000e+00 -2.236375e-05 1.795773e-05 0.000000e+00 -2.130877e-05 1.351405e-05 0.000000e+00 -2.000651e-05 9.193593e-06 0.000000e+00 -1.859670e-05 5.165441e-06 0.000000e+00 -1.715952e-05 9.838665e-07 0.000000e+00 -1.645299e-05 -2.894129e-06 0.000000e+00 8.106553e-06 2.602828e-05 0.000000e+00 4.013167e-06 5.185272e-05 0.000000e+00 1.144100e-06 5.182869e-05 0.000000e+00 -1.555907e-06 5.178988e-05 0.000000e+00 -4.057530e-06 5.175540e-05 0.000000e+00 -6.124054e-06 5.173964e-05 0.000000e+00 -8.423206e-06 5.174313e-05 0.000000e+00 -1.074022e-05 5.176369e-05 0.000000e+00 -1.333789e-05 5.179897e-05 0.000000e+00 -1.625775e-05 5.183517e-05 0.000000e+00 -1.982127e-05 5.186245e-05 0.000000e+00 7.528986e-06 2.881951e-05 0.000000e+00 7.653451e-06 3.082854e-05 0.000000e+00 7.719702e-06 3.323394e-05 0.000000e+00 7.713236e-06 3.609576e-05 0.000000e+00 7.635184e-06 3.911779e-05 0.000000e+00 7.530822e-06 4.231913e-05 0.000000e+00 7.455642e-06 4.552717e-05 0.000000e+00 7.426561e-06 4.856879e-05 0.000000e+00 2.199386e-08 0.000000e+00 0.000000e+00 6.128683e-08 0.000000e+00 0.000000e+00 1.087834e-07 0.000000e+00 0.000000e+00 1.601201e-07 0.000000e+00 0.000000e+00 2.138889e-07 0.000000e+00 0.000000e+00 2.687162e-07 0.000000e+00 0.000000e+00 3.236871e-07 0.000000e+00 0.000000e+00 3.788983e-07 0.000000e+00 0.000000e+00 4.341759e-07 0.000000e+00 0.000000e+00 4.898998e-07 0.000000e+00 0.000000e+00 5.459012e-07 0.000000e+00 0.000000e+00 6.025380e-07 0.000000e+00 0.000000e+00 6.599815e-07 0.000000e+00 0.000000e+00 7.187786e-07 0.000000e+00 0.000000e+00 7.792234e-07 0.000000e+00 0.000000e+00 8.409527e-07 0.000000e+00 0.000000e+00 9.044029e-07 0.000000e+00 0.000000e+00 9.700892e-07 0.000000e+00 0.000000e+00 1.037922e-06 0.000000e+00 0.000000e+00 1.108415e-06 0.000000e+00 0.000000e+00 1.181585e-06 0.000000e+00 0.000000e+00 1.257352e-06 0.000000e+00 0.000000e+00 1.336243e-06 0.000000e+00 0.000000e+00 1.418681e-06 0.000000e+00 0.000000e+00 1.504804e-06 0.000000e+00 0.000000e+00 1.594787e-06 0.000000e+00 0.000000e+00 1.688824e-06 0.000000e+00 0.000000e+00 1.786751e-06 0.000000e+00 0.000000e+00 1.889076e-06 0.000000e+00 0.000000e+00 1.996458e-06 0.000000e+00 0.000000e+00 2.108790e-06 0.000000e+00 0.000000e+00 2.225953e-06 0.000000e+00 0.000000e+00 2.348379e-06 0.000000e+00 0.000000e+00 2.476630e-06 0.000000e+00 0.000000e+00 2.611657e-06 0.000000e+00 0.000000e+00 2.753548e-06 0.000000e+00 0.000000e+00 2.902210e-06 0.000000e+00 0.000000e+00 3.058784e-06 0.000000e+00 0.000000e+00 3.224510e-06 0.000000e+00 0.000000e+00 3.399066e-06 0.000000e+00 0.000000e+00 3.584469e-06 0.000000e+00 0.000000e+00 3.782070e-06 0.000000e+00 0.000000e+00 3.994472e-06 0.000000e+00 0.000000e+00 4.223801e-06 0.000000e+00 0.000000e+00 4.474965e-06 0.000000e+00 0.000000e+00 4.754088e-06 0.000000e+00 0.000000e+00 5.071401e-06 0.000000e+00 0.000000e+00 5.445487e-06 0.000000e+00 0.000000e+00 5.897454e-06 0.000000e+00 0.000000e+00 1.987507e-11 -2.355724e-07 0.000000e+00 1.206308e-07 -1.913709e-07 0.000000e+00 2.304862e-07 -1.804709e-07 0.000000e+00 3.406376e-07 -1.656656e-07 0.000000e+00 4.516470e-07 -1.492859e-07 0.000000e+00 5.650748e-07 -1.319482e-07 0.000000e+00 6.816377e-07 -1.104920e-07 0.000000e+00 8.009320e-07 -9.680488e-08 0.000000e+00 9.260144e-07 -8.614799e-08 0.000000e+00 1.061349e-06 -7.605072e-08 0.000000e+00 1.205169e-06 -6.472861e-08 0.000000e+00 1.366274e-06 -5.207440e-08 0.000000e+00 1.534175e-06 -4.249513e-08 0.000000e+00 1.724423e-06 -2.976024e-08 0.000000e+00 1.924604e-06 -1.839332e-08 0.000000e+00 2.156384e-06 -5.788426e-09 0.000000e+00 2.399214e-06 8.207602e-09 0.000000e+00 2.666435e-06 2.170194e-08 0.000000e+00 2.957562e-06 3.407297e-08 0.000000e+00 3.292449e-06 5.655260e-08 0.000000e+00 3.656593e-06 8.050956e-08 0.000000e+00 4.065219e-06 1.020927e-07 0.000000e+00 4.534203e-06 1.503851e-07 0.000000e+00 5.071455e-06 2.518794e-07 0.000000e+00 5.548410e-06 6.889529e-07 0.000000e+00 5.975771e-06 1.167026e-05 0.000000e+00 6.439645e-06 1.641887e-05 0.000000e+00 6.989529e-06 2.077577e-05 0.000000e+00 7.599087e-06 2.437989e-05 0.000000e+00 6.512461e-06 2.544075e-05 0.000000e+00 6.181104e-06 2.820774e-05 0.000000e+00 5.802628e-06 3.202568e-05 0.000000e+00 5.778581e-06 3.813039e-05 0.000000e+00 5.297003e-06 4.377184e-05 0.000000e+00 3.028608e-06 4.938182e-05 0.000000e+00 -2.438241e-06 4.960215e-05 0.000000e+00 -7.247809e-06 4.961807e-05 0.000000e+00 -1.220991e-05 4.953413e-05 0.000000e+00 -1.773366e-05 4.858259e-05 0.000000e+00 -2.102303e-05 4.752716e-05 0.000000e+00 -2.132949e-05 4.320208e-05 0.000000e+00 -2.146560e-05 3.605615e-05 0.000000e+00 -2.066731e-05 2.868847e-05 0.000000e+00 -1.932868e-05 1.988533e-05 0.000000e+00 -1.721322e-05 1.072967e-05 0.000000e+00 -1.499014e-05 2.412371e-06 0.000000e+00 -1.429199e-05 -6.407188e-07 0.000000e+00 -1.306898e-05 -3.731164e-06 0.000000e+00 -9.796732e-06 -4.880749e-06 0.000000e+00 -4.888973e-06 4.622203e-05 0.000000e+00 -2.991789e-06 4.590574e-05 0.000000e+00 -1.295701e-06 4.502265e-05 0.000000e+00 1.045080e-08 4.374738e-05 0.000000e+00 1.194974e-06 4.228702e-05 0.000000e+00 2.111960e-06 4.058257e-05 0.000000e+00 2.460445e-06 3.863177e-05 0.000000e+00 2.398188e-06 3.666553e-05 0.000000e+00 2.027151e-06 3.458709e-05 0.000000e+00 1.273171e-06 3.255288e-05 0.000000e+00 -1.640751e-08 3.074057e-05 0.000000e+00 -1.484845e-06 2.932707e-05 0.000000e+00 -3.242997e-06 2.833567e-05 0.000000e+00 -5.046237e-06 2.779827e-05 0.000000e+00 -6.785137e-06 2.778403e-05 0.000000e+00 -8.556560e-06 2.820525e-05 0.000000e+00 -1.026630e-05 2.919819e-05 0.000000e+00 -1.174066e-05 3.061639e-05 0.000000e+00 -1.288513e-05 3.236431e-05 0.000000e+00 -1.361298e-05 3.429720e-05 0.000000e+00 -1.400552e-05 3.632187e-05 0.000000e+00 -1.395393e-05 3.823369e-05 0.000000e+00 -1.355476e-05 4.021266e-05 0.000000e+00 -1.281565e-05 4.209551e-05 0.000000e+00 -1.166174e-05 4.372043e-05 0.000000e+00 -1.007983e-05 4.490016e-05 0.000000e+00 -8.379222e-06 4.574874e-05 0.000000e+00 -6.702304e-06 4.616262e-05 0.000000e+00 6.160560e-08 -2.131291e-07 0.000000e+00 1.752445e-07 -1.836912e-07 0.000000e+00 2.867761e-07 -1.757878e-07 0.000000e+00 3.970156e-07 -1.558362e-07 0.000000e+00 5.077192e-07 -1.455615e-07 0.000000e+00 6.235298e-07 -1.186803e-07 0.000000e+00 7.395855e-07 -1.032959e-07 0.000000e+00 8.642740e-07 -9.070091e-08 0.000000e+00 9.931582e-07 -8.115469e-08 0.000000e+00 1.129377e-06 -7.123720e-08 0.000000e+00 1.285663e-06 -5.736551e-08 0.000000e+00 1.448604e-06 -4.721381e-08 0.000000e+00 1.624255e-06 -3.654910e-08 0.000000e+00 1.823308e-06 -2.356036e-08 0.000000e+00 2.037932e-06 -1.252063e-08 0.000000e+00 2.274047e-06 1.166159e-09 0.000000e+00 2.524919e-06 1.478355e-08 0.000000e+00 2.814049e-06 2.881889e-08 0.000000e+00 3.121192e-06 4.105585e-08 0.000000e+00 3.465434e-06 6.873377e-08 0.000000e+00 3.851408e-06 9.216305e-08 0.000000e+00 4.302369e-06 1.181187e-07 0.000000e+00 4.799779e-06 1.909366e-07 0.000000e+00 5.340879e-06 3.722163e-07 0.000000e+00 5.720459e-06 9.208610e-06 0.000000e+00 6.263363e-06 1.411739e-05 0.000000e+00 6.716830e-06 1.872481e-05 0.000000e+00 7.257756e-06 2.262050e-05 0.000000e+00 5.429020e-06 2.672163e-05 0.000000e+00 5.995294e-06 2.989157e-05 0.000000e+00 5.591518e-06 3.501144e-05 0.000000e+00 5.590878e-06 4.101446e-05 0.000000e+00 4.715101e-06 4.669264e-05 0.000000e+00 6.177524e-08 4.951828e-05 0.000000e+00 -4.910592e-06 4.971646e-05 0.000000e+00 -9.583347e-06 4.924263e-05 0.000000e+00 -1.488618e-05 4.912279e-05 0.000000e+00 -1.999308e-05 2.431981e-05 0.000000e+00 -2.142354e-05 3.949508e-05 0.000000e+00 -2.124376e-05 3.260434e-05 0.000000e+00 -1.841504e-05 1.535682e-05 0.000000e+00 -1.570484e-05 6.425236e-06 0.000000e+00 -6.878270e-06 -4.437554e-06 0.000000e+00 2.234847e-07 -3.831132e-07 0.000000e+00 3.380095e-07 -3.339617e-07 0.000000e+00 7.409328e-07 -2.125323e-07 0.000000e+00 6.258613e-07 -2.314290e-07 0.000000e+00 2.785903e-07 -3.654336e-07 0.000000e+00 6.871080e-07 -2.140067e-07 0.000000e+00 5.648397e-07 -2.660594e-07 0.000000e+00 1.290626e-06 -1.117400e-07 0.000000e+00 1.127264e-06 -1.461248e-07 0.000000e+00 4.231028e-06 2.840511e-07 0.000000e+00 1.209198e-06 -1.262450e-07 0.000000e+00 1.055777e-06 -1.565925e-07 0.000000e+00 1.627568e-06 -7.149804e-08 0.000000e+00 1.833701e-06 -4.183505e-08 0.000000e+00 1.733150e-06 -5.612333e-08 0.000000e+00 1.532546e-06 -8.450628e-08 0.000000e+00 2.164619e-06 -3.803470e-09 0.000000e+00 2.842295e-06 7.120297e-08 0.000000e+00 2.408782e-06 2.551867e-08 0.000000e+00 2.687066e-06 5.918507e-08 0.000000e+00 3.854005e-06 2.126059e-07 0.000000e+00 3.449938e-06 1.651690e-07 0.000000e+00 2.545376e-06 4.162473e-08 0.000000e+00 3.651839e-06 1.914866e-07 0.000000e+00 3.275005e-06 1.353009e-07 0.000000e+00 4.072614e-06 2.184667e-07 0.000000e+00 4.404214e-06 1.506665e-05 0.000000e+00 4.841530e-06 1.080372e-06 0.000000e+00 5.001570e-06 1.971695e-05 0.000000e+00 4.226704e-06 1.273782e-05 0.000000e+00 3.928268e-06 1.038862e-05 0.000000e+00 4.769690e-06 6.932074e-07 0.000000e+00 4.648806e-06 1.742461e-05 0.000000e+00 5.240356e-06 6.933568e-06 0.000000e+00 4.033216e-06 3.040931e-05 0.000000e+00 5.872022e-06 2.372090e-05 0.000000e+00 4.533279e-06 2.837030e-05 0.000000e+00 -1.571317e-05 4.623586e-05 0.000000e+00 3.440497e-06 3.284863e-05 0.000000e+00 -1.135510e-05 4.768878e-05 0.000000e+00 -3.724042e-06 4.778080e-05 0.000000e+00 3.318269e-06 4.233959e-05 0.000000e+00 3.032554e-06 4.498435e-05 0.000000e+00 1.165543e-07 -3.738029e-07 0.000000e+00 1.679154e-06 4.732430e-05 0.000000e+00 -1.172513e-06 4.723566e-05 0.000000e+00 -1.841687e-05 3.110055e-05 0.000000e+00 -1.333360e-05 4.704163e-05 0.000000e+00 -1.902356e-05 3.451337e-05 0.000000e+00 -1.721732e-05 2.692689e-05 0.000000e+00 -1.862700e-05 4.501080e-05 0.000000e+00 -1.573765e-05 1.745629e-05 0.000000e+00 -1.226590e-05 3.507937e-06 0.000000e+00 -1.921127e-05 3.757866e-05 0.000000e+00 -1.661048e-05 2.188826e-05 0.000000e+00 -1.197606e-05 8.989577e-07 0.000000e+00 -8.194320e-06 -3.326372e-06 0.000000e+00 -1.144688e-05 -1.429114e-06 0.000000e+00 1.721675e-07 -3.761217e-07 0.000000e+00 2.288657e-06 1.149151e-08 0.000000e+00 5.353002e-06 2.198626e-06 0.000000e+00 -1.882541e-05 4.113438e-05 0.000000e+00 -5.259271e-06 -4.730457e-06 0.000000e+00 8.689444e-07 -1.769147e-07 0.000000e+00 6.121043e-07 4.545179e-05 0.000000e+00 1.682285e-06 4.381253e-05 0.000000e+00 3.924105e-06 3.969330e-05 0.000000e+00 3.569897e-06 3.531764e-05 0.000000e+00 1.920086e-06 3.056225e-05 0.000000e+00 -1.842000e-06 2.711537e-05 0.000000e+00 -5.975231e-06 2.581558e-05 0.000000e+00 -1.005537e-05 2.674793e-05 0.000000e+00 -1.200856e-05 2.825578e-05 0.000000e+00 -1.364140e-05 3.029546e-05 0.000000e+00 -1.474932e-05 3.251024e-05 0.000000e+00 -1.553178e-05 3.725469e-05 0.000000e+00 -1.522334e-05 3.947040e-05 0.000000e+00 -1.469419e-05 4.177001e-05 0.000000e+00 -1.172312e-05 4.570970e-05 0.000000e+00 -9.795162e-06 4.686759e-05 0.000000e+00 5.676156e-06 4.520019e-06 0.000000e+00 3.519925e-06 7.780275e-06 0.000000e+00 -4.905886e-06 -3.618413e-06 0.000000e+00 4.016271e-06 5.514652e-06 0.000000e+00 -1.846980e-08 -4.680726e-07 0.000000e+00 4.473875e-07 -3.116822e-07 0.000000e+00 1.367565e-06 -1.031685e-07 0.000000e+00 8.046491e-07 -1.940146e-07 0.000000e+00 1.942632e-06 -3.067296e-08 0.000000e+00 2.991269e-06 7.480842e-08 0.000000e+00 4.831529e-06 1.840730e-06 0.000000e+00 5.395371e-06 2.175057e-05 0.000000e+00 4.428742e-06 3.661008e-07 0.000000e+00 -1.473023e-05 1.300844e-05 0.000000e+00 4.637627e-06 2.488062e-05 0.000000e+00 -3.677679e-06 -3.862745e-06 0.000000e+00 -6.173113e-06 -3.230868e-06 0.000000e+00 3.951724e-07 -3.135354e-07 0.000000e+00 -1.246026e-05 6.175179e-06 0.000000e+00 4.335273e-06 3.401270e-06 0.000000e+00 -1.040440e-05 -3.082991e-06 0.000000e+00 -5.867423e-06 4.789614e-05 0.000000e+00 9.311237e-07 -1.654194e-07 0.000000e+00 -7.967450e-06 4.760302e-05 0.000000e+00 -1.374134e-05 4.428956e-05 0.000000e+00 -1.539605e-05 3.489961e-05 0.000000e+00 -1.586057e-05 3.031163e-05 0.000000e+00 -8.018318e-06 2.599142e-05 0.000000e+00 -3.900625e-06 2.610634e-05 0.000000e+00 2.915368e-07 2.842888e-05 0.000000e+00 4.051544e-06 3.736644e-05 0.000000e+00 5.246973e-08 -4.096281e-07 0.000000e+00 5.049622e-07 -2.931544e-07 0.000000e+00 9.970426e-07 -1.576601e-07 0.000000e+00 1.448859e-06 -9.518936e-08 0.000000e+00 2.043240e-06 -1.938405e-08 0.000000e+00 3.117638e-06 1.042078e-07 0.000000e+00 4.621937e-06 4.837387e-07 0.000000e+00 -1.372288e-05 9.103822e-06 0.000000e+00 -2.707028e-06 -3.109755e-06 0.000000e+00 -3.427285e-06 -2.979901e-06 0.000000e+00 -2.453609e-06 -3.514496e-06 0.000000e+00 -2.193219e-06 -2.476155e-06 0.000000e+00 -1.833141e-06 -2.680461e-06 0.000000e+00 1.888204e-07 -5.977837e-07 0.000000e+00 1.017853e-06 -2.427843e-07 0.000000e+00 3.170438e-06 2.382762e-07 0.000000e+00 1.496830e-06 -1.230045e-07 0.000000e+00 -1.144250e-05 1.103462e-05 0.000000e+00 2.684637e-06 1.216302e-07 0.000000e+00 2.553476e-06 1.611438e-05 0.000000e+00 7.075848e-07 -3.471130e-07 0.000000e+00 2.365670e-06 1.376580e-05 0.000000e+00 3.521725e-06 2.659072e-05 0.000000e+00 3.384249e-06 2.091737e-05 0.000000e+00 4.191860e-06 2.095783e-06 0.000000e+00 3.910928e-06 2.302339e-05 0.000000e+00 2.267980e-06 1.145108e-05 0.000000e+00 4.208923e-06 1.365940e-06 0.000000e+00 2.881845e-06 1.860981e-05 0.000000e+00 3.216108e-06 4.306582e-06 0.000000e+00 -9.754540e-06 4.563568e-06 0.000000e+00 -1.679458e-05 3.325145e-05 0.000000e+00 -1.233356e-05 1.536681e-05 0.000000e+00 -4.491101e-06 -2.499323e-06 0.000000e+00 3.552364e-07 -5.034941e-07 0.000000e+00 5.461141e-07 -3.877904e-07 0.000000e+00 -9.382040e-06 -1.820511e-07 0.000000e+00 2.596478e-06 2.843307e-05 0.000000e+00 1.937443e-06 9.244681e-06 0.000000e+00 -1.722038e-05 3.601583e-05 0.000000e+00 -9.519922e-06 2.417788e-05 0.000000e+00 -4.919825e-06 2.375422e-05 0.000000e+00 -6.664195e-06 -2.255260e-06 0.000000e+00 -8.898301e-06 -1.891489e-06 0.000000e+00 -4.247262e-07 2.601733e-05 0.000000e+00 -2.196621e-06 2.423024e-05 0.000000e+00 -7.223884e-06 2.377085e-05 0.000000e+00 -1.188196e-05 2.532099e-05 0.000000e+00 -1.419868e-05 2.748561e-05 0.000000e+00 -1.717087e-05 3.857751e-05 0.000000e+00 -1.651714e-05 4.088954e-05 0.000000e+00 -1.284587e-06 -2.095784e-06 0.000000e+00 -2.727486e-06 -2.195696e-06 0.000000e+00 -9.069458e-06 2.008489e-06 0.000000e+00 2.541380e-07 -5.466934e-07 0.000000e+00 1.997138e-06 -1.646944e-08 0.000000e+00 9.542150e-07 -2.535196e-07 0.000000e+00 6.552258e-07 -3.403237e-07 0.000000e+00 1.260281e-06 -1.652684e-07 0.000000e+00 2.520362e-06 9.011564e-08 0.000000e+00 3.013073e-06 1.864304e-07 0.000000e+00 4.214660e-06 9.541464e-07 0.000000e+00 3.555359e-06 3.484902e-07 0.000000e+00 1.710933e-06 -7.562814e-08 0.000000e+00 2.390464e-06 5.809219e-08 0.000000e+00 1.197054e-06 -1.744859e-07 0.000000e+00 3.835616e-06 3.841396e-07 0.000000e+00 3.181355e-07 -4.845742e-07 0.000000e+00 2.578751e-06 5.852290e-06 0.000000e+00 3.354503e-06 2.945981e-07 0.000000e+00 -1.329352e-05 1.965787e-05 0.000000e+00 4.052936e-07 -4.968743e-07 0.000000e+00 2.259304e-06 3.189441e-08 0.000000e+00 -1.638716e-05 4.330768e-05 0.000000e+00 2.890029e-06 1.290044e-07 0.000000e+00 1.486180e-06 2.638183e-05 0.000000e+00 1.408937e-06 -1.413056e-07 0.000000e+00 2.126743e-06 8.349274e-09 0.000000e+00 -1.124609e-05 2.205232e-05 0.000000e+00 6.158640e-07 -3.250040e-07 0.000000e+00 1.268690e-07 -6.231339e-07 0.000000e+00 8.486601e-07 -2.687256e-07 0.000000e+00 4.697189e-07 -4.567050e-07 0.000000e+00 -1.049784e-05 7.513617e-06 0.000000e+00 1.819073e-06 -5.363633e-08 0.000000e+00 3.995196e-06 5.227409e-07 0.000000e+00 1.477748e-06 7.303023e-06 0.000000e+00 -6.020615e-08 -7.245336e-07 0.000000e+00 7.959914e-07 -2.748275e-07 0.000000e+00 9.522672e-08 -5.654555e-07 0.000000e+00 -1.073357e-06 -2.197611e-06 0.000000e+00 3.667124e-08 -5.905436e-07 0.000000e+00 1.603303e-06 -9.778591e-08 0.000000e+00 1.101875e-06 -2.141630e-07 0.000000e+00 -1.407725e-05 2.374222e-05 0.000000e+00 -1.569979e-06 -2.773568e-06 0.000000e+00 -1.541744e-06 -1.888466e-06 0.000000e+00 -8.591303e-07 -2.270359e-06 0.000000e+00 -5.354540e-07 -1.749386e-06 0.000000e+00 -4.291086e-07 -1.675397e-06 0.000000e+00 -1.870016e-07 -1.318529e-06 0.000000e+00 -1.720114e-07 -1.267404e-06 0.000000e+00 -2.215702e-07 -1.344803e-06 0.000000e+00 3.696368e-08 -9.186961e-07 0.000000e+00 -4.105264e-07 -1.721102e-06 0.000000e+00 -1.670949e-07 -1.101912e-06 0.000000e+00 -6.357680e-07 -1.709103e-06 0.000000e+00 -9.059679e-09 -8.469124e-07 0.000000e+00 9.133502e-07 -2.413475e-07 0.000000e+00 1.334886e-06 -1.541836e-07 0.000000e+00 -8.932007e-06 1.322376e-05 0.000000e+00 7.313382e-07 -3.844537e-07 0.000000e+00 1.892197e-06 -3.987077e-08 0.000000e+00 4.131217e-06 6.829268e-07 0.000000e+00 2.621750e-06 2.446266e-05 0.000000e+00 -3.265559e-06 -1.679675e-06 0.000000e+00 6.442392e-07 1.727084e-05 0.000000e+00 3.552344e-06 2.180893e-06 0.000000e+00 -9.934948e-06 1.798472e-05 0.000000e+00 -5.111703e-06 -1.539626e-06 0.000000e+00 3.331201e-06 5.825779e-07 0.000000e+00 3.620334e-06 3.035562e-06 0.000000e+00 3.049088e-07 2.407161e-05 0.000000e+00 1.509560e-07 -7.636890e-07 0.000000e+00 -1.740113e-06 -3.182966e-06 0.000000e+00 6.795399e-07 1.036157e-05 0.000000e+00 2.145063e-06 4.396011e-06 0.000000e+00 2.778246e-08 -1.012711e-06 0.000000e+00 -7.195394e-06 -9.899499e-07 0.000000e+00 -3.843951e-06 2.148574e-05 0.000000e+00 8.557595e-08 -9.730550e-07 0.000000e+00 2.354632e-07 1.471249e-05 0.000000e+00 1.195200e-06 -2.166047e-07 0.000000e+00 1.358647e-06 5.677544e-06 0.000000e+00 8.114529e-07 -3.548950e-07 0.000000e+00 -8.224385e-06 9.071930e-06 0.000000e+00 2.830144e-06 2.997777e-07 0.000000e+00 2.851390e-06 3.176183e-06 0.000000e+00 2.282687e-06 1.164054e-07 0.000000e+00 1.906058e-06