<!-- TimeStep 4 Computed 2021-08-30 at 9:26:11 -->
<VTKFile type="UnstructuredGrid" version="0.1" byte_order="LittleEndian">
<UnstructuredGrid>
<Piece NumberOfPoints="658" NumberOfCells="1187">
<Points>
 <DataArray type="Float64" NumberOfComponents="3" format="ascii"> 3.225000e-02 1.380000e-02 0.000000e+00 3.850000e-02 2.000000e-03 0.000000e+00 1.790000e-02 2.000000e-03 0.000000e+00 3.850000e-02 3.000000e-02 0.000000e+00 1.610000e-02 5.000000e-04 0.000000e+00 -2.400000e-02 3.000000e-02 0.000000e+00 0.000000e+00 0.000000e+00 0.000000e+00 -2.400000e-02 0.000000e+00 0.000000e+00 3.209060e-02 1.520260e-02 0.000000e+00 3.166140e-02 1.644790e-02 0.000000e+00 3.086510e-02 1.772340e-02 0.000000e+00 2.972250e-02 1.882050e-02 0.000000e+00 2.860520e-02 1.948120e-02 0.000000e+00 2.719700e-02 1.993430e-02 0.000000e+00 2.590380e-02 2.004930e-02 0.000000e+00 2.457020e-02 1.988430e-02 0.000000e+00 2.332460e-02 1.944840e-02 0.000000e+00 2.208010e-02 1.866800e-02 0.000000e+00 2.105550e-02 1.762290e-02 0.000000e+00 2.030070e-02 1.636520e-02 0.000000e+00 1.988720e-02 1.510250e-02 0.000000e+00 1.975010e-02 1.376650e-02 0.000000e+00 1.990830e-02 1.240220e-02 0.000000e+00 2.036540e-02 1.109550e-02 0.000000e+00 2.111820e-02 9.897330e-03 0.000000e+00 2.206020e-02 8.948140e-03 0.000000e+00 2.327140e-02 8.177090e-03 0.000000e+00 2.473380e-02 7.679600e-03 0.000000e+00 2.609570e-02 7.550730e-03 0.000000e+00 2.739940e-02 7.708680e-03 0.000000e+00 2.878200e-02 8.203300e-03 0.000000e+00 2.990320e-02 8.918690e-03 0.000000e+00 3.088920e-02 9.906670e-03 0.000000e+00 3.160900e-02 1.104290e-02 0.000000e+00 3.210220e-02 1.244870e-02 0.000000e+00 -2.400000e-02 2.335620e-02 0.000000e+00 -2.400000e-02 1.701100e-02 0.000000e+00 -2.400000e-02 1.072240e-02 0.000000e+00 -2.400000e-02 4.857510e-03 0.000000e+00 2.555380e-03 7.935950e-05 0.000000e+00 4.875910e-03 1.514260e-04 0.000000e+00 6.963700e-03 2.162640e-04 0.000000e+00 8.859870e-03 2.751510e-04 0.000000e+00 1.057630e-02 3.284580e-04 0.000000e+00 1.216970e-02 3.779410e-04 0.000000e+00 1.361520e-02 4.228320e-04 0.000000e+00 1.491400e-02 4.631670e-04 0.000000e+00 3.513720e-02 3.000000e-02 0.000000e+00 3.240430e-02 3.000000e-02 0.000000e+00 2.925060e-02 3.000000e-02 0.000000e+00 2.634890e-02 3.000000e-02 0.000000e+00 2.370540e-02 3.000000e-02 0.000000e+00 2.076670e-02 3.000000e-02 0.000000e+00 1.724780e-02 3.000000e-02 0.000000e+00 1.387080e-02 3.000000e-02 0.000000e+00 1.012770e-02 3.000000e-02 0.000000e+00 5.994200e-03 3.000000e-02 0.000000e+00 1.449760e-03 3.000000e-02 0.000000e+00 -3.587440e-03 3.000000e-02 0.000000e+00 -1.004840e-02 3.000000e-02 0.000000e+00 -1.697880e-02 3.000000e-02 0.000000e+00 1.699120e-02 1.242700e-03 0.000000e+00 3.850000e-02 5.026050e-03 0.000000e+00 3.850000e-02 7.576210e-03 0.000000e+00 3.850000e-02 9.994300e-03 0.000000e+00 3.850000e-02 1.226100e-02 0.000000e+00 3.850000e-02 1.414740e-02 0.000000e+00 3.850000e-02 1.624580e-02 0.000000e+00 3.850000e-02 1.834310e-02 0.000000e+00 3.850000e-02 2.066490e-02 0.000000e+00 3.850000e-02 2.323650e-02 0.000000e+00 3.850000e-02 2.633950e-02 0.000000e+00 1.914730e-02 2.000000e-03 0.000000e+00 2.068130e-02 2.000000e-03 0.000000e+00 2.253900e-02 2.000000e-03 0.000000e+00 2.480250e-02 2.000000e-03 0.000000e+00 2.727520e-02 2.000000e-03 0.000000e+00 3.001300e-02 2.000000e-03 0.000000e+00 3.284600e-02 2.000000e-03 0.000000e+00 3.556410e-02 2.000000e-03 0.000000e+00 -2.352000e-02 0.000000e+00 0.000000e+00 -2.304000e-02 0.000000e+00 0.000000e+00 -2.256000e-02 0.000000e+00 0.000000e+00 -2.208000e-02 0.000000e+00 0.000000e+00 -2.160000e-02 0.000000e+00 0.000000e+00 -2.112000e-02 0.000000e+00 0.000000e+00 -2.064000e-02 0.000000e+00 0.000000e+00 -2.016000e-02 0.000000e+00 0.000000e+00 -1.968000e-02 0.000000e+00 0.000000e+00 -1.920000e-02 0.000000e+00 0.000000e+00 -1.872000e-02 0.000000e+00 0.000000e+00 -1.824000e-02 0.000000e+00 0.000000e+00 -1.776000e-02 0.000000e+00 0.000000e+00 -1.728000e-02 0.000000e+00 0.000000e+00 -1.680000e-02 0.000000e+00 0.000000e+00 -1.632000e-02 0.000000e+00 0.000000e+00 -1.584000e-02 0.000000e+00 0.000000e+00 -1.536000e-02 0.000000e+00 0.000000e+00 -1.488000e-02 0.000000e+00 0.000000e+00 -1.440000e-02 0.000000e+00 0.000000e+00 -1.392000e-02 0.000000e+00 0.000000e+00 -1.344000e-02 0.000000e+00 0.000000e+00 -1.296000e-02 0.000000e+00 0.000000e+00 -1.248000e-02 0.000000e+00 0.000000e+00 -1.200000e-02 0.000000e+00 0.000000e+00 -1.152000e-02 0.000000e+00 0.000000e+00 -1.104000e-02 0.000000e+00 0.000000e+00 -1.056000e-02 0.000000e+00 0.000000e+00 -1.008000e-02 0.000000e+00 0.000000e+00 -9.600000e-03 0.000000e+00 0.000000e+00 -9.120000e-03 0.000000e+00 0.000000e+00 -8.640000e-03 0.000000e+00 0.000000e+00 -8.160000e-03 0.000000e+00 0.000000e+00 -7.680000e-03 0.000000e+00 0.000000e+00 -7.200000e-03 0.000000e+00 0.000000e+00 -6.720000e-03 0.000000e+00 0.000000e+00 -6.240000e-03 0.000000e+00 0.000000e+00 -5.760000e-03 0.000000e+00 0.000000e+00 -5.280000e-03 0.000000e+00 0.000000e+00 -4.800000e-03 0.000000e+00 0.000000e+00 -4.320000e-03 0.000000e+00 0.000000e+00 -3.840000e-03 0.000000e+00 0.000000e+00 -3.360000e-03 0.000000e+00 0.000000e+00 -2.880000e-03 0.000000e+00 0.000000e+00 -2.400000e-03 0.000000e+00 0.000000e+00 -1.920000e-03 0.000000e+00 0.000000e+00 -1.440000e-03 0.000000e+00 0.000000e+00 -9.600000e-04 0.000000e+00 0.000000e+00 -4.800000e-04 0.000000e+00 0.000000e+00 -2.340000e-02 5.208130e-04 0.000000e+00 -2.232960e-02 4.618260e-04 0.000000e+00 -2.136950e-02 4.810430e-04 0.000000e+00 -2.041540e-02 4.927590e-04 0.000000e+00 -1.945300e-02 4.966680e-04 0.000000e+00 -1.848070e-02 4.958900e-04 0.000000e+00 -1.751710e-02 4.691530e-04 0.000000e+00 -1.656600e-02 4.678350e-04 0.000000e+00 -1.561650e-02 4.775930e-04 0.000000e+00 -1.465390e-02 4.891080e-04 0.000000e+00 -1.370270e-02 4.971550e-04 0.000000e+00 -1.272340e-02 4.842530e-04 0.000000e+00 -1.178010e-02 4.967790e-04 0.000000e+00 -1.080540e-02 4.845440e-04 0.000000e+00 -9.864580e-03 4.765300e-04 0.000000e+00 -8.865750e-03 4.840670e-04 0.000000e+00 -7.905730e-03 5.011730e-04 0.000000e+00 -6.950840e-03 4.922920e-04 0.000000e+00 -6.019280e-03 4.246020e-04 0.000000e+00 -5.025350e-03 4.728720e-04 0.000000e+00 -4.065420e-03 4.835660e-04 0.000000e+00 -3.128960e-03 4.451670e-04 0.000000e+00 -2.171430e-03 4.762830e-04 0.000000e+00 -1.187460e-03 5.232410e-04 0.000000e+00 -1.169200e-04 6.148440e-04 0.000000e+00 5.857940e-03 1.696520e-03 0.000000e+00 9.466970e-03 1.890640e-03 0.000000e+00 1.285950e-02 1.842540e-03 0.000000e+00 1.567970e-02 1.589100e-03 0.000000e+00 1.654450e-02 2.586790e-03 0.000000e+00 1.870650e-02 3.039180e-03 0.000000e+00 2.161510e-02 3.508730e-03 0.000000e+00 2.644280e-02 3.572340e-03 0.000000e+00 3.127720e-02 3.918880e-03 0.000000e+00 3.629790e-02 5.896780e-03 0.000000e+00 3.653930e-02 1.078160e-02 0.000000e+00 3.658270e-02 1.517420e-02 0.000000e+00 3.649690e-02 1.966800e-02 0.000000e+00 3.564140e-02 2.453050e-02 0.000000e+00 3.471780e-02 2.738170e-02 0.000000e+00 3.097490e-02 2.763820e-02 0.000000e+00 2.500050e-02 2.778260e-02 0.000000e+00 1.911390e-02 2.734780e-02 0.000000e+00 1.195580e-02 2.690690e-02 0.000000e+00 3.452650e-03 2.633780e-02 0.000000e+00 -7.324260e-03 2.613160e-02 0.000000e+00 -1.270890e-02 2.610200e-02 0.000000e+00 -1.842590e-02 2.481480e-02 0.000000e+00 -2.078380e-02 2.023790e-02 0.000000e+00 3.351880e-02 1.299650e-02 0.000000e+00 3.321610e-02 1.125410e-02 0.000000e+00 3.240270e-02 9.708370e-03 0.000000e+00 3.124550e-02 8.531210e-03 0.000000e+00 2.994440e-02 7.484320e-03 0.000000e+00 2.846950e-02 6.692040e-03 0.000000e+00 2.682410e-02 6.398290e-03 0.000000e+00 2.522120e-02 6.457060e-03 0.000000e+00 2.358330e-02 6.768300e-03 0.000000e+00 2.202220e-02 7.395140e-03 0.000000e+00 2.065990e-02 8.488800e-03 0.000000e+00 1.961080e-02 9.755280e-03 0.000000e+00 1.888420e-02 1.131290e-02 0.000000e+00 1.849530e-02 1.294410e-02 0.000000e+00 1.849360e-02 1.454180e-02 0.000000e+00 1.881370e-02 1.618350e-02 0.000000e+00 1.956540e-02 1.777080e-02 0.000000e+00 2.064850e-02 1.913430e-02 0.000000e+00 2.199860e-02 2.018520e-02 0.000000e+00 2.351120e-02 2.085000e-02 0.000000e+00 2.512340e-02 2.121420e-02 0.000000e+00 2.667170e-02 2.118690e-02 0.000000e+00 2.831550e-02 2.085570e-02 0.000000e+00 2.991870e-02 2.021780e-02 0.000000e+00 3.132950e-02 1.919600e-02 0.000000e+00 3.236480e-02 1.776990e-02 0.000000e+00 3.311520e-02 1.621600e-02 0.000000e+00 3.347840e-02 1.467100e-02 0.000000e+00 -2.284400e-02 4.893670e-04 0.000000e+00 -2.185120e-02 4.651270e-04 0.000000e+00 -2.087950e-02 4.954800e-04 0.000000e+00 -1.992730e-02 4.905700e-04 0.000000e+00 -1.896440e-02 5.146960e-04 0.000000e+00 -1.799490e-02 4.750100e-04 0.000000e+00 -1.705020e-02 4.652250e-04 0.000000e+00 -1.607800e-02 4.701420e-04 0.000000e+00 -1.512950e-02 4.852050e-04 0.000000e+00 -1.419440e-02 4.972290e-04 0.000000e+00 -1.320410e-02 4.845360e-04 0.000000e+00 -1.225140e-02 4.886650e-04 0.000000e+00 -1.130790e-02 4.924130e-04 0.000000e+00 -1.033120e-02 4.774360e-04 0.000000e+00 -9.365120e-03 4.775410e-04 0.000000e+00 -8.389860e-03 4.925440e-04 0.000000e+00 -7.442720e-03 5.065380e-04 0.000000e+00 -6.466490e-03 4.625650e-04 0.000000e+00 -5.527350e-03 4.204680e-04 0.000000e+00 -4.553670e-03 4.855930e-04 0.000000e+00 -3.599350e-03 4.758930e-04 0.000000e+00 -2.637330e-03 4.397930e-04 0.000000e+00 -1.676010e-03 4.983490e-04 0.000000e+00 -6.774770e-04 5.559640e-04 0.000000e+00 4.116400e-03 1.544720e-03 0.000000e+00 7.691210e-03 1.775840e-03 0.000000e+00 1.126030e-02 1.890640e-03 0.000000e+00 1.429970e-02 1.759220e-03 0.000000e+00 1.756480e-02 3.582850e-03 0.000000e+00 1.998660e-02 3.276390e-03 0.000000e+00 2.393340e-02 3.733490e-03 0.000000e+00 2.887110e-02 3.696960e-03 0.000000e+00 3.388150e-02 4.409110e-03 0.000000e+00 3.644040e-02 8.532590e-03 0.000000e+00 3.666220e-02 1.303330e-02 0.000000e+00 3.624470e-02 1.730480e-02 0.000000e+00 3.612270e-02 2.204020e-02 0.000000e+00 1.561920e-02 2.705730e-02 0.000000e+00 2.783560e-02 2.771860e-02 0.000000e+00 2.222260e-02 2.767250e-02 0.000000e+00 7.971510e-03 2.667810e-02 
[...]
<PointData Scalars="" Vectors="DisplacementVector " Tensors="IST_StressTensor IST_StrainTensor " >
 <DataArray type="Float64" Name="DisplacementVector" NumberOfComponents="3" format="ascii"> -3.460269e-06 2.688378e-05 0.000000e+00 4.453186e-06 3.111481e-05 0.000000e+00 4.409193e-06 1.630228e-05 0.000000e+00 -1.442387e-05 3.112193e-05 0.000000e+00 5.359972e-06 1.495288e-05 0.000000e+00 -9.819640e-06 -4.302365e-06 0.000000e+00 3.845806e-06 0.000000e+00 0.000000e+00 0.000000e+00 0.000000e+00 0.000000e+00 -4.365956e-06 2.677029e-05 0.000000e+00 -5.174499e-06 2.647839e-05 0.000000e+00 -6.011232e-06 2.593787e-05 0.000000e+00 -6.744229e-06 2.515526e-05 0.000000e+00 -7.200414e-06 2.437356e-05 0.000000e+00 -7.525798e-06 2.336575e-05 0.000000e+00 -7.623459e-06 2.241744e-05 0.000000e+00 -7.532353e-06 2.141780e-05 0.000000e+00 -7.259408e-06 2.047203e-05 0.000000e+00 -6.758837e-06 1.951087e-05 0.000000e+00 -6.081425e-06 1.870602e-05 0.000000e+00 -5.261684e-06 1.810600e-05 0.000000e+00 -4.432052e-06 1.777668e-05 0.000000e+00 -3.548478e-06 1.767325e-05 0.000000e+00 -2.639226e-06 1.781088e-05 0.000000e+00 -1.758089e-06 1.819115e-05 0.000000e+00 -9.382337e-07 1.880782e-05 0.000000e+00 -2.789421e-07 1.956857e-05 0.000000e+00 2.603125e-07 2.052849e-05 0.000000e+00 5.998723e-07 2.165241e-05 0.000000e+00 6.837092e-07 2.267297e-05 0.000000e+00 5.681825e-07 2.361603e-05 0.000000e+00 2.200969e-07 2.459003e-05 0.000000e+00 -2.682974e-07 2.535448e-05 0.000000e+00 -9.274345e-07 2.601021e-05 0.000000e+00 -1.674111e-06 2.647961e-05 0.000000e+00 -2.587674e-06 2.679489e-05 0.000000e+00 -7.246313e-06 -4.259762e-06 0.000000e+00 -4.551566e-06 -3.924088e-06 0.000000e+00 -2.062821e-06 -2.990969e-06 0.000000e+00 -4.703731e-07 -1.524774e-06 0.000000e+00 4.564166e-06 4.204234e-06 0.000000e+00 4.728559e-06 6.240842e-06 0.000000e+00 4.888637e-06 7.947345e-06 0.000000e+00 5.027349e-06 9.429859e-06 0.000000e+00 5.142439e-06 1.075009e-05 0.000000e+00 5.234617e-06 1.196975e-05 0.000000e+00 5.302089e-06 1.307436e-05 0.000000e+00 5.344665e-06 1.406385e-05 0.000000e+00 -1.442917e-05 2.880307e-05 0.000000e+00 -1.444122e-05 2.691245e-05 0.000000e+00 -1.446501e-05 2.470126e-05 0.000000e+00 -1.447813e-05 2.262101e-05 0.000000e+00 -1.446095e-05 2.068128e-05 0.000000e+00 -1.438226e-05 1.848838e-05 0.000000e+00 -1.418304e-05 1.586108e-05 0.000000e+00 -1.387987e-05 1.339182e-05 0.000000e+00 -1.341825e-05 1.077464e-05 0.000000e+00 -1.278526e-05 8.108427e-06 0.000000e+00 -1.200390e-05 5.516156e-06 0.000000e+00 -1.115802e-05 3.099265e-06 0.000000e+00 -1.029571e-05 5.903199e-07 0.000000e+00 -9.871793e-06 -1.736477e-06 0.000000e+00 4.863932e-06 1.561697e-05 0.000000e+00 2.407900e-06 3.111163e-05 0.000000e+00 6.864600e-07 3.109721e-05 0.000000e+00 -9.335444e-07 3.107393e-05 0.000000e+00 -2.434518e-06 3.105324e-05 0.000000e+00 -3.674432e-06 3.104378e-05 0.000000e+00 -5.053924e-06 3.104588e-05 0.000000e+00 -6.444131e-06 3.105821e-05 0.000000e+00 -8.002736e-06 3.107938e-05 0.000000e+00 -9.754647e-06 3.110110e-05 0.000000e+00 -1.189276e-05 3.111747e-05 0.000000e+00 4.517392e-06 1.729171e-05 0.000000e+00 4.592071e-06 1.849712e-05 0.000000e+00 4.631821e-06 1.994036e-05 0.000000e+00 4.627942e-06 2.165746e-05 0.000000e+00 4.581110e-06 2.347067e-05 0.000000e+00 4.518493e-06 2.539148e-05 0.000000e+00 4.473385e-06 2.731630e-05 0.000000e+00 4.455937e-06 2.914127e-05 0.000000e+00 1.319631e-08 0.000000e+00 0.000000e+00 3.677210e-08 0.000000e+00 0.000000e+00 6.527007e-08 0.000000e+00 0.000000e+00 9.607208e-08 0.000000e+00 0.000000e+00 1.283333e-07 0.000000e+00 0.000000e+00 1.612297e-07 0.000000e+00 0.000000e+00 1.942123e-07 0.000000e+00 0.000000e+00 2.273390e-07 0.000000e+00 0.000000e+00 2.605056e-07 0.000000e+00 0.000000e+00 2.939399e-07 0.000000e+00 0.000000e+00 3.275407e-07 0.000000e+00 0.000000e+00 3.615228e-07 0.000000e+00 0.000000e+00 3.959889e-07 0.000000e+00 0.000000e+00 4.312672e-07 0.000000e+00 0.000000e+00 4.675341e-07 0.000000e+00 0.000000e+00 5.045716e-07 0.000000e+00 0.000000e+00 5.426417e-07 0.000000e+00 0.000000e+00 5.820535e-07 0.000000e+00 0.000000e+00 6.227532e-07 0.000000e+00 0.000000e+00 6.650490e-07 0.000000e+00 0.000000e+00 7.089509e-07 0.000000e+00 0.000000e+00 7.544112e-07 0.000000e+00 0.000000e+00 8.017458e-07 0.000000e+00 0.000000e+00 8.512087e-07 0.000000e+00 0.000000e+00 9.028824e-07 0.000000e+00 0.000000e+00 9.568722e-07 0.000000e+00 0.000000e+00 1.013295e-06 0.000000e+00 0.000000e+00 1.072051e-06 0.000000e+00 0.000000e+00 1.133445e-06 0.000000e+00 0.000000e+00 1.197875e-06 0.000000e+00 0.000000e+00 1.265274e-06 0.000000e+00 0.000000e+00 1.335572e-06 0.000000e+00 0.000000e+00 1.409028e-06 0.000000e+00 0.000000e+00 1.485978e-06 0.000000e+00 0.000000e+00 1.566994e-06 0.000000e+00 0.000000e+00 1.652129e-06 0.000000e+00 0.000000e+00 1.741326e-06 0.000000e+00 0.000000e+00 1.835270e-06 0.000000e+00 0.000000e+00 1.934706e-06 0.000000e+00 0.000000e+00 2.039439e-06 0.000000e+00 0.000000e+00 2.150681e-06 0.000000e+00 0.000000e+00 2.269242e-06 0.000000e+00 0.000000e+00 2.396683e-06 0.000000e+00 0.000000e+00 2.534280e-06 0.000000e+00 0.000000e+00 2.684979e-06 0.000000e+00 0.000000e+00 2.852453e-06 0.000000e+00 0.000000e+00 3.042840e-06 0.000000e+00 0.000000e+00 3.267292e-06 0.000000e+00 0.000000e+00 3.538473e-06 0.000000e+00 0.000000e+00 1.192504e-11 -1.413434e-07 0.000000e+00 7.237845e-08 -1.148226e-07 0.000000e+00 1.382917e-07 -1.082825e-07 0.000000e+00 2.043825e-07 -9.939935e-08 0.000000e+00 2.709882e-07 -8.957152e-08 0.000000e+00 3.390449e-07 -7.916894e-08 0.000000e+00 4.089826e-07 -6.629518e-08 0.000000e+00 4.805592e-07 -5.808293e-08 0.000000e+00 5.556086e-07 -5.168879e-08 0.000000e+00 6.368097e-07 -4.563043e-08 0.000000e+00 7.231016e-07 -3.883717e-08 0.000000e+00 8.197646e-07 -3.124464e-08 0.000000e+00 9.205050e-07 -2.549708e-08 0.000000e+00 1.034654e-06 -1.785615e-08 0.000000e+00 1.154762e-06 -1.103599e-08 0.000000e+00 1.293831e-06 -3.473056e-09 0.000000e+00 1.439529e-06 4.924561e-09 0.000000e+00 1.599861e-06 1.302117e-08 0.000000e+00 1.774537e-06 2.044378e-08 0.000000e+00 1.975470e-06 3.393156e-08 0.000000e+00 2.193956e-06 4.830573e-08 0.000000e+00 2.439131e-06 6.125562e-08 0.000000e+00 2.720522e-06 9.023105e-08 0.000000e+00 3.042873e-06 1.511277e-07 0.000000e+00 3.329046e-06 4.133717e-07 0.000000e+00 3.585463e-06 7.002158e-06 0.000000e+00 3.863787e-06 9.851324e-06 0.000000e+00 4.193717e-06 1.246546e-05 0.000000e+00 4.559452e-06 1.462793e-05 0.000000e+00 3.907477e-06 1.526445e-05 0.000000e+00 3.708663e-06 1.692465e-05 0.000000e+00 3.481577e-06 1.921541e-05 0.000000e+00 3.467148e-06 2.287823e-05 0.000000e+00 3.178202e-06 2.626311e-05 0.000000e+00 1.817165e-06 2.962909e-05 0.000000e+00 -1.462945e-06 2.976129e-05 0.000000e+00 -4.348685e-06 2.977084e-05 0.000000e+00 -7.325948e-06 2.972048e-05 0.000000e+00 -1.064020e-05 2.914955e-05 0.000000e+00 -1.261382e-05 2.851630e-05 0.000000e+00 -1.279770e-05 2.592125e-05 0.000000e+00 -1.287936e-05 2.163369e-05 0.000000e+00 -1.240039e-05 1.721308e-05 0.000000e+00 -1.159721e-05 1.193120e-05 0.000000e+00 -1.032793e-05 6.437800e-06 0.000000e+00 -8.994086e-06 1.447423e-06 0.000000e+00 -8.575191e-06 -3.844313e-07 0.000000e+00 -7.841387e-06 -2.238698e-06 0.000000e+00 -5.878039e-06 -2.928450e-06 0.000000e+00 -2.933384e-06 2.773322e-05 0.000000e+00 -1.795073e-06 2.754345e-05 0.000000e+00 -7.774207e-07 2.701359e-05 0.000000e+00 6.270479e-09 2.624843e-05 0.000000e+00 7.169845e-07 2.537221e-05 0.000000e+00 1.267176e-06 2.434954e-05 0.000000e+00 1.476267e-06 2.317906e-05 0.000000e+00 1.438913e-06 2.199932e-05 0.000000e+00 1.216290e-06 2.075225e-05 0.000000e+00 7.639023e-07 1.953173e-05 0.000000e+00 -9.844506e-09 1.844434e-05 0.000000e+00 -8.909071e-07 1.759624e-05 0.000000e+00 -1.945798e-06 1.700140e-05 0.000000e+00 -3.027742e-06 1.667896e-05 0.000000e+00 -4.071082e-06 1.667042e-05 0.000000e+00 -5.133936e-06 1.692315e-05 0.000000e+00 -6.159778e-06 1.751891e-05 0.000000e+00 -7.044396e-06 1.836984e-05 0.000000e+00 -7.731081e-06 1.941859e-05 0.000000e+00 -8.167789e-06 2.057832e-05 0.000000e+00 -8.403310e-06 2.179312e-05 0.000000e+00 -8.372361e-06 2.294022e-05 0.000000e+00 -8.132857e-06 2.412759e-05 0.000000e+00 -7.689389e-06 2.525730e-05 0.000000e+00 -6.997045e-06 2.623226e-05 0.000000e+00 -6.047897e-06 2.694010e-05 0.000000e+00 -5.027533e-06 2.744925e-05 0.000000e+00 -4.021382e-06 2.769757e-05 0.000000e+00 3.696336e-08 -1.278775e-07 0.000000e+00 1.051467e-07 -1.102147e-07 0.000000e+00 1.720656e-07 -1.054727e-07 0.000000e+00 2.382094e-07 -9.350171e-08 0.000000e+00 3.046315e-07 -8.733690e-08 0.000000e+00 3.741179e-07 -7.120817e-08 0.000000e+00 4.437513e-07 -6.197757e-08 0.000000e+00 5.185644e-07 -5.442055e-08 0.000000e+00 5.958949e-07 -4.869282e-08 0.000000e+00 6.776264e-07 -4.274232e-08 0.000000e+00 7.713977e-07 -3.441931e-08 0.000000e+00 8.691621e-07 -2.832829e-08 0.000000e+00 9.745529e-07 -2.192946e-08 0.000000e+00 1.093985e-06 -1.413622e-08 0.000000e+00 1.222759e-06 -7.512380e-09 0.000000e+00 1.364428e-06 6.996953e-10 0.000000e+00 1.514951e-06 8.870129e-09 0.000000e+00 1.688429e-06 1.729133e-08 0.000000e+00 1.872715e-06 2.463351e-08 0.000000e+00 2.079261e-06 4.124026e-08 0.000000e+00 2.310845e-06 5.529783e-08 0.000000e+00 2.581421e-06 7.087124e-08 0.000000e+00 2.879867e-06 1.145619e-07 0.000000e+00 3.204527e-06 2.233298e-07 0.000000e+00 3.432275e-06 5.525166e-06 0.000000e+00 3.758018e-06 8.470437e-06 0.000000e+00 4.030098e-06 1.123489e-05 0.000000e+00 4.354654e-06 1.357230e-05 0.000000e+00 3.257412e-06 1.603298e-05 0.000000e+00 3.597176e-06 1.793494e-05 0.000000e+00 3.354911e-06 2.100686e-05 0.000000e+00 3.354527e-06 2.460868e-05 0.000000e+00 2.829061e-06 2.801558e-05 0.000000e+00 3.706514e-08 2.971097e-05 0.000000e+00 -2.946355e-06 2.982988e-05 0.000000e+00 -5.750008e-06 2.954558e-05 0.000000e+00 -8.931705e-06 2.947368e-05 0.000000e+00 -1.199585e-05 1.459188e-05 0.000000e+00 -1.285413e-05 2.369705e-05 0.000000e+00 -1.274626e-05 1.956261e-05 0.000000e+00 -1.104902e-05 9.214094e-06 0.000000e+00 -9.422901e-06 3.855142e-06 0.000000e+00 -4.126962e-06 -2.662532e-06 0.000000e+00 1.340908e-07 -2.298679e-07 0.000000e+00 2.028057e-07 -2.003770e-07 0.000000e+00 4.445597e-07 -1.275194e-07 0.000000e+00 3.755168e-07 -1.388574e-07 0.000000e+00 1.671542e-07 -2.192601e-07 0.000000e+00 4.122648e-07 -1.284040e-07 0.000000e+00 3.389038e-07 -1.596356e-07 0.000000e+00 7.743758e-07 -6.704400e-08 0.000000e+00 6.763585e-07 -8.767490e-08 0.000000e+00 2.538617e-06 1.704307e-07 0.000000e+00 7.255189e-07 -7.574701e-08 0.000000e+00 6.334665e-07 -9.395549e-08 0.000000e+00 9.765406e-07 -4.289882e-08 0.000000e+00 1.100221e-06 -2.510103e-08 0.000000e+00 1.039890e-06 -3.367400e-08 0.000000e+00 9.195274e-07 -5.070377e-08 0.000000e+00 1.298771e-06 -2.282082e-09 0.000000e+00 1.705377e-06 4.272178e-08 0.000000e+00 1.445269e-06 1.531120e-08 0.000000e+00 1.612240e-06 3.551104e-08 0.000000e+00 2.312403e-06 1.275635e-07 0.000000e+00 2.069963e-06 9.910139e-08 0.000000e+00 1.527226e-06 2.497484e-08 0.000000e+00 2.191104e-06 1.148919e-07 0.000000e+00 1.965003e-06 8.118051e-08 0.000000e+00 2.443568e-06 1.310800e-07 0.000000e+00 2.642528e-06 9.039990e-06 0.000000e+00 2.904918e-06 6.482233e-07 0.000000e+00 3.000942e-06 1.183017e-05 0.000000e+00 2.536022e-06 7.642693e-06 0.000000e+00 2.356961e-06 6.233172e-06 0.000000e+00 2.861814e-06 4.159245e-07 0.000000e+00 2.789283e-06 1.045476e-05 0.000000e+00 3.144213e-06 4.160141e-06 0.000000e+00 2.419929e-06 1.824558e-05 0.000000e+00 3.523213e-06 1.423254e-05 0.000000e+00 2.719967e-06 1.702218e-05 0.000000e+00 -9.427904e-06 2.774152e-05 0.000000e+00 2.064298e-06 1.970918e-05 0.000000e+00 -6.813060e-06 2.861327e-05 0.000000e+00 -2.234425e-06 2.866848e-05 0.000000e+00 1.990961e-06 2.540375e-05 0.000000e+00 1.819532e-06 2.699061e-05 0.000000e+00 6.993255e-08 -2.242818e-07 0.000000e+00 1.007493e-06 2.839458e-05 0.000000e+00 -7.035077e-07 2.834139e-05 0.000000e+00 -1.105012e-05 1.866033e-05 0.000000e+00 -8.000159e-06 2.822498e-05 0.000000e+00 -1.141414e-05 2.070802e-05 0.000000e+00 -1.033039e-05 1.615613e-05 0.000000e+00 -1.117620e-05 2.700648e-05 0.000000e+00 -9.442590e-06 1.047377e-05 0.000000e+00 -7.359543e-06 2.104762e-06 0.000000e+00 -1.152676e-05 2.254720e-05 0.000000e+00 -9.966288e-06 1.313296e-05 0.000000e+00 -7.185639e-06 5.393746e-07 0.000000e+00 -4.916592e-06 -1.995823e-06 0.000000e+00 -6.868127e-06 -8.574684e-07 0.000000e+00 1.033005e-07 -2.256730e-07 0.000000e+00 1.373194e-06 6.894909e-09 0.000000e+00 3.211801e-06 1.319175e-06 0.000000e+00 -1.129525e-05 2.468063e-05 0.000000e+00 -3.155563e-06 -2.838274e-06 0.000000e+00 5.213666e-07 -1.061488e-07 0.000000e+00 3.672626e-07 2.727107e-05 0.000000e+00 1.009371e-06 2.628752e-05 0.000000e+00 2.354463e-06 2.381598e-05 0.000000e+00 2.141938e-06 2.119059e-05 0.000000e+00 1.152052e-06 1.833735e-05 0.000000e+00 -1.105200e-06 1.626922e-05 0.000000e+00 -3.585138e-06 1.548935e-05 0.000000e+00 -6.033221e-06 1.604876e-05 0.000000e+00 -7.205135e-06 1.695347e-05 0.000000e+00 -8.184838e-06 1.817728e-05 0.000000e+00 -8.849591e-06 1.950614e-05 0.000000e+00 -9.319069e-06 2.235281e-05 0.000000e+00 -9.134001e-06 2.368224e-05 0.000000e+00 -8.816516e-06 2.506200e-05 0.000000e+00 -7.033873e-06 2.742582e-05 0.000000e+00 -5.877097e-06 2.812055e-05 0.000000e+00 3.405693e-06 2.712012e-06 0.000000e+00 2.111955e-06 4.668165e-06 0.000000e+00 -2.943532e-06 -2.171048e-06 0.000000e+00 2.409762e-06 3.308791e-06 0.000000e+00 -1.108188e-08 -2.808436e-07 0.000000e+00 2.684325e-07 -1.870093e-07 0.000000e+00 8.205391e-07 -6.190107e-08 0.000000e+00 4.827895e-07 -1.164088e-07 0.000000e+00 1.165579e-06 -1.840378e-08 0.000000e+00 1.794762e-06 4.488505e-08 0.000000e+00 2.898917e-06 1.104438e-06 0.000000e+00 3.237223e-06 1.305034e-05 0.000000e+00 2.657245e-06 2.196605e-07 0.000000e+00 -8.838137e-06 7.805066e-06 0.000000e+00 2.782576e-06 1.492837e-05 0.000000e+00 -2.206608e-06 -2.317647e-06 0.000000e+00 -3.703868e-06 -1.938521e-06 0.000000e+00 2.371034e-07 -1.881212e-07 0.000000e+00 -7.476155e-06 3.705107e-06 0.000000e+00 2.601164e-06 2.040762e-06 0.000000e+00 -6.242639e-06 -1.849794e-06 0.000000e+00 -3.520454e-06 2.873768e-05 0.000000e+00 5.586742e-07 -9.925162e-08 0.000000e+00 -4.780470e-06 2.856181e-05 0.000000e+00 -8.244803e-06 2.657373e-05 0.000000e+00 -9.237631e-06 2.093977e-05 0.000000e+00 -9.516340e-06 1.818698e-05 0.000000e+00 -4.810991e-06 1.559485e-05 0.000000e+00 -2.340375e-06 1.566380e-05 0.000000e+00 1.749221e-07 1.705733e-05 0.000000e+00 2.430927e-06 2.241986e-05 0.000000e+00 3.148184e-08 -2.457768e-07 0.000000e+00 3.029773e-07 -1.758926e-07 0.000000e+00 5.982255e-07 -9.459606e-08 0.000000e+00 8.693156e-07 -5.711362e-08 0.000000e+00 1.225944e-06 -1.163043e-08 0.000000e+00 1.870583e-06 6.252468e-08 0.000000e+00 2.773162e-06 2.902432e-07 0.000000e+00 -8.233726e-06 5.462293e-06 0.000000e+00 -1.624217e-06 -1.865853e-06 0.000000e+00 -2.056371e-06 -1.787940e-06 0.000000e+00 -1.472165e-06 -2.108698e-06 0.000000e+00 -1.315932e-06 -1.485693e-06 0.000000e+00 -1.099885e-06 -1.608277e-06 0.000000e+00 1.132922e-07 -3.586702e-07 0.000000e+00 6.107119e-07 -1.456706e-07 0.000000e+00 1.902263e-06 1.429657e-07 0.000000e+00 8.980982e-07 -7.380270e-08 0.000000e+00 -6.865498e-06 6.620770e-06 0.000000e+00 1.610782e-06 7.297809e-08 0.000000e+00 1.532086e-06 9.668626e-06 0.000000e+00 4.245509e-07 -2.082678e-07 0.000000e+00 1.419402e-06 8.259480e-06 0.000000e+00 2.113035e-06 1.595443e-05 0.000000e+00 2.030549e-06 1.255042e-05 0.000000e+00 2.515116e-06 1.257470e-06 0.000000e+00 2.346557e-06 1.381403e-05 0.000000e+00 1.360788e-06 6.870648e-06 0.000000e+00 2.525354e-06 8.195640e-07 0.000000e+00 1.729107e-06 1.116589e-05 0.000000e+00 1.929665e-06 2.583949e-06 0.000000e+00 -5.852724e-06 2.738141e-06 0.000000e+00 -1.007675e-05 1.995087e-05 0.000000e+00 -7.400137e-06 9.220085e-06 0.000000e+00 -2.694661e-06 -1.499594e-06 0.000000e+00 2.131418e-07 -3.020964e-07 0.000000e+00 3.276685e-07 -2.326742e-07 0.000000e+00 -5.629224e-06 -1.092306e-07 0.000000e+00 1.557887e-06 1.705984e-05 0.000000e+00 1.162466e-06 5.546808e-06 0.000000e+00 -1.033223e-05 2.160950e-05 0.000000e+00 -5.711953e-06 1.450673e-05 0.000000e+00 -2.951895e-06 1.425253e-05 0.000000e+00 -3.998517e-06 -1.353156e-06 0.000000e+00 -5.338981e-06 -1.134894e-06 0.000000e+00 -2.548357e-07 1.561040e-05 0.000000e+00 -1.317973e-06 1.453814e-05 0.000000e+00 -4.334330e-06 1.426251e-05 0.000000e+00 -7.129177e-06 1.519259e-05 0.000000e+00 -8.519208e-06 1.649137e-05 0.000000e+00 -1.030252e-05 2.314650e-05 0.000000e+00 -9.910286e-06 2.453372e-05 0.000000e+00 -7.707520e-07 -1.257471e-06 0.000000e+00 -1.636491e-06 -1.317417e-06 0.000000e+00 -5.441675e-06 1.205093e-06 0.000000e+00 1.524828e-07 -3.280161e-07 0.000000e+00 1.198283e-06 -9.881663e-09 0.000000e+00 5.725290e-07 -1.521117e-07 0.000000e+00 3.931355e-07 -2.041942e-07 0.000000e+00 7.561689e-07 -9.916107e-08 0.000000e+00 1.512217e-06 5.406938e-08 0.000000e+00 1.807844e-06 1.118583e-07 0.000000e+00 2.528796e-06 5.724878e-07 0.000000e+00 2.133215e-06 2.090941e-07 0.000000e+00 1.026560e-06 -4.537689e-08 0.000000e+00 1.434279e-06 3.485531e-08 0.000000e+00 7.182324e-07 -1.046916e-07 0.000000e+00 2.301369e-06 2.304838e-07 0.000000e+00 1.908813e-07 -2.907445e-07 0.000000e+00 1.547250e-06 3.511374e-06 0.000000e+00 2.012702e-06 1.767589e-07 0.000000e+00 -7.976112e-06 1.179472e-05 0.000000e+00 2.431762e-07 -2.981246e-07 0.000000e+00 1.355582e-06 1.913664e-08 0.000000e+00 -9.832295e-06 2.598461e-05 0.000000e+00 1.734017e-06 7.740267e-08 0.000000e+00 8.917080e-07 1.582910e-05 0.000000e+00 8.453621e-07 -8.478337e-08 0.000000e+00 1.276046e-06 5.009564e-09 0.000000e+00 -6.747652e-06 1.323139e-05 0.000000e+00 3.695184e-07 -1.950024e-07 0.000000e+00 7.612141e-08 -3.738804e-07 0.000000e+00 5.091961e-07 -1.612354e-07 0.000000e+00 2.818313e-07 -2.740230e-07 0.000000e+00 -6.298706e-06 4.508170e-06 0.000000e+00 1.091444e-06 -3.218180e-08 0.000000e+00 2.397118e-06 3.136446e-07 0.000000e+00 8.866487e-07 4.381814e-06 0.000000e+00 -3.612369e-08 -4.347202e-07 0.000000e+00 4.775948e-07 -1.648965e-07 0.000000e+00 5.713603e-08 -3.392733e-07 0.000000e+00 -6.440145e-07 -1.318567e-06 0.000000e+00 2.200274e-08 -3.543262e-07 0.000000e+00 9.619818e-07 -5.867154e-08 0.000000e+00 6.611251e-07 -1.284978e-07 0.000000e+00 -8.446352e-06 1.424533e-05 0.000000e+00 -9.419874e-07 -1.664141e-06 0.000000e+00 -9.250466e-07 -1.133080e-06 0.000000e+00 -5.154782e-07 -1.362215e-06 0.000000e+00 -3.212724e-07 -1.049632e-06 0.000000e+00 -2.574652e-07 -1.005238e-06 0.000000e+00 -1.122010e-07 -7.911177e-07 0.000000e+00 -1.032068e-07 -7.604422e-07 0.000000e+00 -1.329421e-07 -8.068818e-07 0.000000e+00 2.217821e-08 -5.512177e-07 0.000000e+00 -2.463158e-07 -1.032661e-06 0.000000e+00 -1.002569e-07 -6.611471e-07 0.000000e+00 -3.814608e-07 -1.025462e-06 0.000000e+00 -5.435807e-09 -5.081475e-07 0.000000e+00 5.480101e-07 -1.448085e-07 0.000000e+00 8.009317e-07 -9.251017e-08 0.000000e+00 -5.359204e-06 7.934257e-06 0.000000e+00 4.388029e-07 -2.306722e-07 0.000000e+00 1.135318e-06 -2.392246e-08 0.000000e+00 2.478730e-06 4.097561e-07 0.000000e+00 1.573050e-06 1.467760e-05 0.000000e+00 -1.959336e-06 -1.007805e-06 0.000000e+00 3.865435e-07 1.036250e-05 0.000000e+00 2.131406e-06 1.308536e-06 0.000000e+00 -5.960969e-06 1.079083e-05 0.000000e+00 -3.067022e-06 -9.237758e-07 0.000000e+00 1.998720e-06 3.495467e-07 0.000000e+00 2.172200e-06 1.821337e-06 0.000000e+00 1.829453e-07 1.444297e-05 0.000000e+00 9.057359e-08 -4.582134e-07 0.000000e+00 -1.044068e-06 -1.909780e-06 0.000000e+00 4.077239e-07 6.216943e-06 0.000000e+00 1.287038e-06 2.637607e-06 0.000000e+00 1.666948e-08 -6.076267e-07 0.000000e+00 -4.317236e-06 -5.939700e-07 0.000000e+00 -2.306371e-06 1.289144e-05 0.000000e+00 5.134557e-08 -5.838330e-07 0.000000e+00 1.412779e-07 8.827493e-06 0.000000e+00 7.171197e-07 -1.299628e-07 0.000000e+00 8.151881e-07 3.406526e-06 0.000000e+00 4.868718e-07 -2.129370e-07 0.000000e+00 -4.934631e-06 5.443158e-06 0.000000e+00 1.698087e-06 1.798666e-07 0.000000e+00 1.710834e-06 1.905710e-06 0.000000e+00 1.369612e-06 6.984322e-08 0.000000e+00 1.143635e-06