<!-- TimeStep 8 Computed 2021-08-30 at 9:26:11 -->
<VTKFile type="UnstructuredGrid" version="0.1" byte_order="LittleEndian">
<UnstructuredGrid>
<Piece NumberOfPoints="658" NumberOfCells="1187">
<Points>
 <DataArray type="Float64" NumberOfComponents="3" format="ascii"> 3.225000e-02 1.380000e-02 0.000000e+00 3.850000e-02 2.000000e-03 0.000000e+00 1.790000e-02 2.000000e-03 0.000000e+00 3.850000e-02 3.000000e-02 0.000000e+00 1.610000e-02 5.000000e-04 0.000000e+00 -2.400000e-02 3.000000e-02 0.000000e+00 0.000000e+00 0.000000e+00 0.000000e+00 -2.400000e-02 0.000000e+00 0.000000e+00 3.209060e-02 1.520260e-02 0.000000e+00 3.166140e-02 1.644790e-02 0.000000e+00 3.086510e-02 1.772340e-02 0.000000e+00 2.972250e-02 1.882050e-02 0.000000e+00 2.860520e-02 1.948120e-02 0.000000e+00 2.719700e-02 1.993430e-02 0.000000e+00 2.590380e-02 2.004930e-02 0.000000e+00 2.457020e-02 1.988430e-02 0.000000e+00 2.332460e-02 1.944840e-02 0.000000e+00 2.208010e-02 1.866800e-02 0.000000e+00 2.105550e-02 1.762290e-02 0.000000e+00 2.030070e-02 1.636520e-02 0.000000e+00 1.988720e-02 1.510250e-02 0.000000e+00 1.975010e-02 1.376650e-02 0.000000e+00 1.990830e-02 1.240220e-02 0.000000e+00 2.036540e-02 1.109550e-02 0.000000e+00 2.111820e-02 9.897330e-03 0.000000e+00 2.206020e-02 8.948140e-03 0.000000e+00 2.327140e-02 8.177090e-03 0.000000e+00 2.473380e-02 7.679600e-03 0.000000e+00 2.609570e-02 7.550730e-03 0.000000e+00 2.739940e-02 7.708680e-03 0.000000e+00 2.878200e-02 8.203300e-03 0.000000e+00 2.990320e-02 8.918690e-03 0.000000e+00 3.088920e-02 9.906670e-03 0.000000e+00 3.160900e-02 1.104290e-02 0.000000e+00 3.210220e-02 1.244870e-02 0.000000e+00 -2.400000e-02 2.335620e-02 0.000000e+00 -2.400000e-02 1.701100e-02 0.000000e+00 -2.400000e-02 1.072240e-02 0.000000e+00 -2.400000e-02 4.857510e-03 0.000000e+00 2.555380e-03 7.935950e-05 0.000000e+00 4.875910e-03 1.514260e-04 0.000000e+00 6.963700e-03 2.162640e-04 0.000000e+00 8.859870e-03 2.751510e-04 0.000000e+00 1.057630e-02 3.284580e-04 0.000000e+00 1.216970e-02 3.779410e-04 0.000000e+00 1.361520e-02 4.228320e-04 0.000000e+00 1.491400e-02 4.631670e-04 0.000000e+00 3.513720e-02 3.000000e-02 0.000000e+00 3.240430e-02 3.000000e-02 0.000000e+00 2.925060e-02 3.000000e-02 0.000000e+00 2.634890e-02 3.000000e-02 0.000000e+00 2.370540e-02 3.000000e-02 0.000000e+00 2.076670e-02 3.000000e-02 0.000000e+00 1.724780e-02 3.000000e-02 0.000000e+00 1.387080e-02 3.000000e-02 0.000000e+00 1.012770e-02 3.000000e-02 0.000000e+00 5.994200e-03 3.000000e-02 0.000000e+00 1.449760e-03 3.000000e-02 0.000000e+00 -3.587440e-03 3.000000e-02 0.000000e+00 -1.004840e-02 3.000000e-02 0.000000e+00 -1.697880e-02 3.000000e-02 0.000000e+00 1.699120e-02 1.242700e-03 0.000000e+00 3.850000e-02 5.026050e-03 0.000000e+00 3.850000e-02 7.576210e-03 0.000000e+00 3.850000e-02 9.994300e-03 0.000000e+00 3.850000e-02 1.226100e-02 0.000000e+00 3.850000e-02 1.414740e-02 0.000000e+00 3.850000e-02 1.624580e-02 0.000000e+00 3.850000e-02 1.834310e-02 0.000000e+00 3.850000e-02 2.066490e-02 0.000000e+00 3.850000e-02 2.323650e-02 0.000000e+00 3.850000e-02 2.633950e-02 0.000000e+00 1.914730e-02 2.000000e-03 0.000000e+00 2.068130e-02 2.000000e-03 0.000000e+00 2.253900e-02 2.000000e-03 0.000000e+00 2.480250e-02 2.000000e-03 0.000000e+00 2.727520e-02 2.000000e-03 0.000000e+00 3.001300e-02 2.000000e-03 0.000000e+00 3.284600e-02 2.000000e-03 0.000000e+00 3.556410e-02 2.000000e-03 0.000000e+00 -2.352000e-02 0.000000e+00 0.000000e+00 -2.304000e-02 0.000000e+00 0.000000e+00 -2.256000e-02 0.000000e+00 0.000000e+00 -2.208000e-02 0.000000e+00 0.000000e+00 -2.160000e-02 0.000000e+00 0.000000e+00 -2.112000e-02 0.000000e+00 0.000000e+00 -2.064000e-02 0.000000e+00 0.000000e+00 -2.016000e-02 0.000000e+00 0.000000e+00 -1.968000e-02 0.000000e+00 0.000000e+00 -1.920000e-02 0.000000e+00 0.000000e+00 -1.872000e-02 0.000000e+00 0.000000e+00 -1.824000e-02 0.000000e+00 0.000000e+00 -1.776000e-02 0.000000e+00 0.000000e+00 -1.728000e-02 0.000000e+00 0.000000e+00 -1.680000e-02 0.000000e+00 0.000000e+00 -1.632000e-02 0.000000e+00 0.000000e+00 -1.584000e-02 0.000000e+00 0.000000e+00 -1.536000e-02 0.000000e+00 0.000000e+00 -1.488000e-02 0.000000e+00 0.000000e+00 -1.440000e-02 0.000000e+00 0.000000e+00 -1.392000e-02 0.000000e+00 0.000000e+00 -1.344000e-02 0.000000e+00 0.000000e+00 -1.296000e-02 0.000000e+00 0.000000e+00 -1.248000e-02 0.000000e+00 0.000000e+00 -1.200000e-02 0.000000e+00 0.000000e+00 -1.152000e-02 0.000000e+00 0.000000e+00 -1.104000e-02 0.000000e+00 0.000000e+00 -1.056000e-02 0.000000e+00 0.000000e+00 -1.008000e-02 0.000000e+00 0.000000e+00 -9.600000e-03 0.000000e+00 0.000000e+00 -9.120000e-03 0.000000e+00 0.000000e+00 -8.640000e-03 0.000000e+00 0.000000e+00 -8.160000e-03 0.000000e+00 0.000000e+00 -7.680000e-03 0.000000e+00 0.000000e+00 -7.200000e-03 0.000000e+00 0.000000e+00 -6.720000e-03 0.000000e+00 0.000000e+00 -6.240000e-03 0.000000e+00 0.000000e+00 -5.760000e-03 0.000000e+00 0.000000e+00 -5.280000e-03 0.000000e+00 0.000000e+00 -4.800000e-03 0.000000e+00 0.000000e+00 -4.320000e-03 0.000000e+00 0.000000e+00 -3.840000e-03 0.000000e+00 0.000000e+00 -3.360000e-03 0.000000e+00 0.000000e+00 -2.880000e-03 0.000000e+00 0.000000e+00 -2.400000e-03 0.000000e+00 0.000000e+00 -1.920000e-03 0.000000e+00 0.000000e+00 -1.440000e-03 0.000000e+00 0.000000e+00 -9.600000e-04 0.000000e+00 0.000000e+00 -4.800000e-04 0.000000e+00 0.000000e+00 -2.340000e-02 5.208130e-04 0.000000e+00 -2.232960e-02 4.618260e-04 0.000000e+00 -2.136950e-02 4.810430e-04 0.000000e+00 -2.041540e-02 4.927590e-04 0.000000e+00 -1.945300e-02 4.966680e-04 0.000000e+00 -1.848070e-02 4.958900e-04 0.000000e+00 -1.751710e-02 4.691530e-04 0.000000e+00 -1.656600e-02 4.678350e-04 0.000000e+00 -1.561650e-02 4.775930e-04 0.000000e+00 -1.465390e-02 4.891080e-04 0.000000e+00 -1.370270e-02 4.971550e-04 0.000000e+00 -1.272340e-02 4.842530e-04 0.000000e+00 -1.178010e-02 4.967790e-04 0.000000e+00 -1.080540e-02 4.845440e-04 0.000000e+00 -9.864580e-03 4.765300e-04 0.000000e+00 -8.865750e-03 4.840670e-04 0.000000e+00 -7.905730e-03 5.011730e-04 0.000000e+00 -6.950840e-03 4.922920e-04 0.000000e+00 -6.019280e-03 4.246020e-04 0.000000e+00 -5.025350e-03 4.728720e-04 0.000000e+00 -4.065420e-03 4.835660e-04 0.000000e+00 -3.128960e-03 4.451670e-04 0.000000e+00 -2.171430e-03 4.762830e-04 0.000000e+00 -1.187460e-03 5.232410e-04 0.000000e+00 -1.169200e-04 6.148440e-04 0.000000e+00 5.857940e-03 1.696520e-03 0.000000e+00 9.466970e-03 1.890640e-03 0.000000e+00 1.285950e-02 1.842540e-03 0.000000e+00 1.567970e-02 1.589100e-03 0.000000e+00 1.654450e-02 2.586790e-03 0.000000e+00 1.870650e-02 3.039180e-03 0.000000e+00 2.161510e-02 3.508730e-03 0.000000e+00 2.644280e-02 3.572340e-03 0.000000e+00 3.127720e-02 3.918880e-03 0.000000e+00 3.629790e-02 5.896780e-03 0.000000e+00 3.653930e-02 1.078160e-02 0.000000e+00 3.658270e-02 1.517420e-02 0.000000e+00 3.649690e-02 1.966800e-02 0.000000e+00 3.564140e-02 2.453050e-02 0.000000e+00 3.471780e-02 2.738170e-02 0.000000e+00 3.097490e-02 2.763820e-02 0.000000e+00 2.500050e-02 2.778260e-02 0.000000e+00 1.911390e-02 2.734780e-02 0.000000e+00 1.195580e-02 2.690690e-02 0.000000e+00 3.452650e-03 2.633780e-02 0.000000e+00 -7.324260e-03 2.613160e-02 0.000000e+00 -1.270890e-02 2.610200e-02 0.000000e+00 -1.842590e-02 2.481480e-02 0.000000e+00 -2.078380e-02 2.023790e-02 0.000000e+00 3.351880e-02 1.299650e-02 0.000000e+00 3.321610e-02 1.125410e-02 0.000000e+00 3.240270e-02 9.708370e-03 0.000000e+00 3.124550e-02 8.531210e-03 0.000000e+00 2.994440e-02 7.484320e-03 0.000000e+00 2.846950e-02 6.692040e-03 0.000000e+00 2.682410e-02 6.398290e-03 0.000000e+00 2.522120e-02 6.457060e-03 0.000000e+00 2.358330e-02 6.768300e-03 0.000000e+00 2.202220e-02 7.395140e-03 0.000000e+00 2.065990e-02 8.488800e-03 0.000000e+00 1.961080e-02 9.755280e-03 0.000000e+00 1.888420e-02 1.131290e-02 0.000000e+00 1.849530e-02 1.294410e-02 0.000000e+00 1.849360e-02 1.454180e-02 0.000000e+00 1.881370e-02 1.618350e-02 0.000000e+00 1.956540e-02 1.777080e-02 0.000000e+00 2.064850e-02 1.913430e-02 0.000000e+00 2.199860e-02 2.018520e-02 0.000000e+00 2.351120e-02 2.085000e-02 0.000000e+00 2.512340e-02 2.121420e-02 0.000000e+00 2.667170e-02 2.118690e-02 0.000000e+00 2.831550e-02 2.085570e-02 0.000000e+00 2.991870e-02 2.021780e-02 0.000000e+00 3.132950e-02 1.919600e-02 0.000000e+00 3.236480e-02 1.776990e-02 0.000000e+00 3.311520e-02 1.621600e-02 0.000000e+00 3.347840e-02 1.467100e-02 0.000000e+00 -2.284400e-02 4.893670e-04 0.000000e+00 -2.185120e-02 4.651270e-04 0.000000e+00 -2.087950e-02 4.954800e-04 0.000000e+00 -1.992730e-02 4.905700e-04 0.000000e+00 -1.896440e-02 5.146960e-04 0.000000e+00 -1.799490e-02 4.750100e-04 0.000000e+00 -1.705020e-02 4.652250e-04 0.000000e+00 -1.607800e-02 4.701420e-04 0.000000e+00 -1.512950e-02 4.852050e-04 0.000000e+00 -1.419440e-02 4.972290e-04 0.000000e+00 -1.320410e-02 4.845360e-04 0.000000e+00 -1.225140e-02 4.886650e-04 0.000000e+00 -1.130790e-02 4.924130e-04 0.000000e+00 -1.033120e-02 4.774360e-04 0.000000e+00 -9.365120e-03 4.775410e-04 0.000000e+00 -8.389860e-03 4.925440e-04 0.000000e+00 -7.442720e-03 5.065380e-04 0.000000e+00 -6.466490e-03 4.625650e-04 0.000000e+00 -5.527350e-03 4.204680e-04 0.000000e+00 -4.553670e-03 4.855930e-04 0.000000e+00 -3.599350e-03 4.758930e-04 0.000000e+00 -2.637330e-03 4.397930e-04 0.000000e+00 -1.676010e-03 4.983490e-04 0.000000e+00 -6.774770e-04 5.559640e-04 0.000000e+00 4.116400e-03 1.544720e-03 0.000000e+00 7.691210e-03 1.775840e-03 0.000000e+00 1.126030e-02 1.890640e-03 0.000000e+00 1.429970e-02 1.759220e-03 0.000000e+00 1.756480e-02 3.582850e-03 0.000000e+00 1.998660e-02 3.276390e-03 0.000000e+00 2.393340e-02 3.733490e-03 0.000000e+00 2.887110e-02 3.696960e-03 0.000000e+00 3.388150e-02 4.409110e-03 0.000000e+00 3.644040e-02 8.532590e-03 0.000000e+00 3.666220e-02 1.303330e-02 0.000000e+00 3.624470e-02 1.730480e-02 0.000000e+00 3.612270e-02 2.204020e-02 0.000000e+00 1.561920e-02 2.705730e-02 0.000000e+00 2.783560e-02 2.771860e-02 0.000000e+00 2.222260e-02 2.767250e-02 0.000000e+00 7.971510e-03 2.667810e-02 
[...]
<PointData Scalars="" Vectors="DisplacementVector " Tensors="IST_StressTensor IST_StrainTensor " >
 <DataArray type="Float64" Name="DisplacementVector" NumberOfComponents="3" format="ascii"> -8.073961e-06 6.272883e-05 0.000000e+00 1.039077e-05 7.260122e-05 0.000000e+00 1.028812e-05 3.803865e-05 0.000000e+00 -3.365569e-05 7.261784e-05 0.000000e+00 1.250660e-05 3.489005e-05 0.000000e+00 -2.291249e-05 -1.003885e-05 0.000000e+00 8.973548e-06 0.000000e+00 0.000000e+00 0.000000e+00 0.000000e+00 0.000000e+00 -1.018723e-05 6.246401e-05 0.000000e+00 -1.207383e-05 6.178291e-05 0.000000e+00 -1.402621e-05 6.052169e-05 0.000000e+00 -1.573653e-05 5.869561e-05 0.000000e+00 -1.680097e-05 5.687164e-05 0.000000e+00 -1.756020e-05 5.452008e-05 0.000000e+00 -1.778807e-05 5.230736e-05 0.000000e+00 -1.757549e-05 4.997487e-05 0.000000e+00 -1.693862e-05 4.776808e-05 0.000000e+00 -1.577062e-05 4.552536e-05 0.000000e+00 -1.418999e-05 4.364738e-05 0.000000e+00 -1.227726e-05 4.224734e-05 0.000000e+00 -1.034146e-05 4.147893e-05 0.000000e+00 -8.279782e-06 4.123758e-05 0.000000e+00 -6.158195e-06 4.155872e-05 0.000000e+00 -4.102207e-06 4.244601e-05 0.000000e+00 -2.189212e-06 4.388492e-05 0.000000e+00 -6.508650e-07 4.565999e-05 0.000000e+00 6.073957e-07 4.789981e-05 0.000000e+00 1.399702e-06 5.052229e-05 0.000000e+00 1.595322e-06 5.290359e-05 0.000000e+00 1.325759e-06 5.510407e-05 0.000000e+00 5.135595e-07 5.737674e-05 0.000000e+00 -6.260273e-07 5.916046e-05 0.000000e+00 -2.164014e-06 6.069049e-05 0.000000e+00 -3.906259e-06 6.178576e-05 0.000000e+00 -6.037905e-06 6.252140e-05 0.000000e+00 -1.690806e-05 -9.939444e-06 0.000000e+00 -1.062032e-05 -9.156205e-06 0.000000e+00 -4.813248e-06 -6.978927e-06 0.000000e+00 -1.097537e-06 -3.557807e-06 0.000000e+00 1.064972e-05 9.809879e-06 0.000000e+00 1.103330e-05 1.456196e-05 0.000000e+00 1.140682e-05 1.854380e-05 0.000000e+00 1.173048e-05 2.200300e-05 0.000000e+00 1.199902e-05 2.508355e-05 0.000000e+00 1.221411e-05 2.792943e-05 0.000000e+00 1.237154e-05 3.050685e-05 0.000000e+00 1.247089e-05 3.281564e-05 0.000000e+00 -3.366806e-05 6.720716e-05 0.000000e+00 -3.369618e-05 6.279571e-05 0.000000e+00 -3.375170e-05 5.763627e-05 0.000000e+00 -3.378231e-05 5.278235e-05 0.000000e+00 -3.374221e-05 4.825632e-05 0.000000e+00 -3.355860e-05 4.313956e-05 0.000000e+00 -3.309376e-05 3.700919e-05 0.000000e+00 -3.238637e-05 3.124759e-05 0.000000e+00 -3.130925e-05 2.514082e-05 0.000000e+00 -2.983228e-05 1.891966e-05 0.000000e+00 -2.800911e-05 1.287103e-05 0.000000e+00 -2.603538e-05 7.231617e-06 0.000000e+00 -2.402332e-05 1.377413e-06 0.000000e+00 -2.303418e-05 -4.051780e-06 0.000000e+00 1.134917e-05 3.643959e-05 0.000000e+00 5.618434e-06 7.259381e-05 0.000000e+00 1.601740e-06 7.256017e-05 0.000000e+00 -2.178270e-06 7.250584e-05 0.000000e+00 -5.680542e-06 7.245755e-05 0.000000e+00 -8.573675e-06 7.243549e-05 0.000000e+00 -1.179249e-05 7.244038e-05 0.000000e+00 -1.503631e-05 7.246916e-05 0.000000e+00 -1.867305e-05 7.251855e-05 0.000000e+00 -2.276084e-05 7.256924e-05 0.000000e+00 -2.774978e-05 7.260743e-05 0.000000e+00 1.054058e-05 4.034732e-05 0.000000e+00 1.071483e-05 4.315996e-05 0.000000e+00 1.080758e-05 4.652752e-05 0.000000e+00 1.079853e-05 5.053407e-05 0.000000e+00 1.068926e-05 5.476490e-05 0.000000e+00 1.054315e-05 5.924678e-05 0.000000e+00 1.043790e-05 6.373803e-05 0.000000e+00 1.039719e-05 6.799631e-05 0.000000e+00 3.079140e-08 0.000000e+00 0.000000e+00 8.580156e-08 0.000000e+00 0.000000e+00 1.522968e-07 0.000000e+00 0.000000e+00 2.241682e-07 0.000000e+00 0.000000e+00 2.994444e-07 0.000000e+00 0.000000e+00 3.762027e-07 0.000000e+00 0.000000e+00 4.531619e-07 0.000000e+00 0.000000e+00 5.304577e-07 0.000000e+00 0.000000e+00 6.078463e-07 0.000000e+00 0.000000e+00 6.858597e-07 0.000000e+00 0.000000e+00 7.642616e-07 0.000000e+00 0.000000e+00 8.435533e-07 0.000000e+00 0.000000e+00 9.239741e-07 0.000000e+00 0.000000e+00 1.006290e-06 0.000000e+00 0.000000e+00 1.090913e-06 0.000000e+00 0.000000e+00 1.177334e-06 0.000000e+00 0.000000e+00 1.266164e-06 0.000000e+00 0.000000e+00 1.358125e-06 0.000000e+00 0.000000e+00 1.453091e-06 0.000000e+00 0.000000e+00 1.551781e-06 0.000000e+00 0.000000e+00 1.654219e-06 0.000000e+00 0.000000e+00 1.760293e-06 0.000000e+00 0.000000e+00 1.870740e-06 0.000000e+00 0.000000e+00 1.986154e-06 0.000000e+00 0.000000e+00 2.106726e-06 0.000000e+00 0.000000e+00 2.232702e-06 0.000000e+00 0.000000e+00 2.364354e-06 0.000000e+00 0.000000e+00 2.501452e-06 0.000000e+00 0.000000e+00 2.644706e-06 0.000000e+00 0.000000e+00 2.795041e-06 0.000000e+00 0.000000e+00 2.952306e-06 0.000000e+00 0.000000e+00 3.116335e-06 0.000000e+00 0.000000e+00 3.287731e-06 0.000000e+00 0.000000e+00 3.467281e-06 0.000000e+00 0.000000e+00 3.656320e-06 0.000000e+00 0.000000e+00 3.854967e-06 0.000000e+00 0.000000e+00 4.063094e-06 0.000000e+00 0.000000e+00 4.282297e-06 0.000000e+00 0.000000e+00 4.514314e-06 0.000000e+00 0.000000e+00 4.758692e-06 0.000000e+00 0.000000e+00 5.018256e-06 0.000000e+00 0.000000e+00 5.294897e-06 0.000000e+00 0.000000e+00 5.592260e-06 0.000000e+00 0.000000e+00 5.913321e-06 0.000000e+00 0.000000e+00 6.264951e-06 0.000000e+00 0.000000e+00 6.655724e-06 0.000000e+00 0.000000e+00 7.099961e-06 0.000000e+00 0.000000e+00 7.623681e-06 0.000000e+00 0.000000e+00 8.256436e-06 0.000000e+00 0.000000e+00 2.782510e-11 -3.298013e-07 0.000000e+00 1.688831e-07 -2.679193e-07 0.000000e+00 3.226807e-07 -2.526593e-07 0.000000e+00 4.768926e-07 -2.319318e-07 0.000000e+00 6.323059e-07 -2.090002e-07 0.000000e+00 7.911047e-07 -1.847275e-07 0.000000e+00 9.542928e-07 -1.546888e-07 0.000000e+00 1.121305e-06 -1.355268e-07 0.000000e+00 1.296420e-06 -1.206072e-07 0.000000e+00 1.485889e-06 -1.064710e-07 0.000000e+00 1.687237e-06 -9.062006e-08 0.000000e+00 1.912784e-06 -7.290416e-08 0.000000e+00 2.147845e-06 -5.949318e-08 0.000000e+00 2.414192e-06 -4.166434e-08 0.000000e+00 2.694445e-06 -2.575065e-08 0.000000e+00 3.018938e-06 -8.103796e-09 0.000000e+00 3.358900e-06 1.149064e-08 0.000000e+00 3.733008e-06 3.038272e-08 0.000000e+00 4.140587e-06 4.770216e-08 0.000000e+00 4.609429e-06 7.917364e-08 0.000000e+00 5.119230e-06 1.127134e-07 0.000000e+00 5.691307e-06 1.429298e-07 0.000000e+00 6.347885e-06 2.105391e-07 0.000000e+00 7.100037e-06 3.526312e-07 0.000000e+00 7.767775e-06 9.645340e-07 0.000000e+00 8.366079e-06 1.633837e-05 0.000000e+00 9.015503e-06 2.298642e-05 0.000000e+00 9.785340e-06 2.908607e-05 0.000000e+00 1.063872e-05 3.413184e-05 0.000000e+00 9.117446e-06 3.561706e-05 0.000000e+00 8.653546e-06 3.949084e-05 0.000000e+00 8.123679e-06 4.483596e-05 0.000000e+00 8.090013e-06 5.338254e-05 0.000000e+00 7.415804e-06 6.128058e-05 0.000000e+00 4.240051e-06 6.913455e-05 0.000000e+00 -3.413538e-06 6.944301e-05 0.000000e+00 -1.014693e-05 6.946529e-05 0.000000e+00 -1.709388e-05 6.934779e-05 0.000000e+00 -2.482713e-05 6.801563e-05 0.000000e+00 -2.943224e-05 6.653802e-05 0.000000e+00 -2.986129e-05 6.048291e-05 0.000000e+00 -3.005184e-05 5.047861e-05 0.000000e+00 -2.893424e-05 4.016386e-05 0.000000e+00 -2.706016e-05 2.783946e-05 0.000000e+00 -2.409851e-05 1.502153e-05 0.000000e+00 -2.098620e-05 3.377320e-06 0.000000e+00 -2.000878e-05 -8.970063e-07 0.000000e+00 -1.829657e-05 -5.223629e-06 0.000000e+00 -1.371542e-05 -6.833049e-06 0.000000e+00 -6.844562e-06 6.471085e-05 0.000000e+00 -4.188504e-06 6.426804e-05 0.000000e+00 -1.813982e-06 6.303171e-05 0.000000e+00 1.463112e-08 6.124633e-05 0.000000e+00 1.672964e-06 5.920182e-05 0.000000e+00 2.956744e-06 5.681559e-05 0.000000e+00 3.444623e-06 5.408448e-05 0.000000e+00 3.357463e-06 5.133174e-05 0.000000e+00 2.838011e-06 4.842192e-05 0.000000e+00 1.782439e-06 4.557403e-05 0.000000e+00 -2.297051e-08 4.303680e-05 0.000000e+00 -2.078783e-06 4.105789e-05 0.000000e+00 -4.540195e-06 3.966993e-05 0.000000e+00 -7.064731e-06 3.891758e-05 0.000000e+00 -9.499192e-06 3.889764e-05 0.000000e+00 -1.197918e-05 3.948734e-05 0.000000e+00 -1.437281e-05 4.087746e-05 0.000000e+00 -1.643692e-05 4.286295e-05 0.000000e+00 -1.803919e-05 4.531004e-05 0.000000e+00 -1.905818e-05 4.801608e-05 0.000000e+00 -1.960772e-05 5.085062e-05 0.000000e+00 -1.953551e-05 5.352717e-05 0.000000e+00 -1.897667e-05 5.629772e-05 0.000000e+00 -1.794191e-05 5.893371e-05 0.000000e+00 -1.632644e-05 6.120860e-05 0.000000e+00 -1.411176e-05 6.286023e-05 0.000000e+00 -1.173091e-05 6.404824e-05 0.000000e+00 -9.383225e-06 6.462767e-05 0.000000e+00 8.624784e-08 -2.983808e-07 0.000000e+00 2.453423e-07 -2.571677e-07 0.000000e+00 4.014865e-07 -2.461029e-07 0.000000e+00 5.558219e-07 -2.181707e-07 0.000000e+00 7.108069e-07 -2.037861e-07 0.000000e+00 8.729417e-07 -1.661524e-07 0.000000e+00 1.035420e-06 -1.446143e-07 0.000000e+00 1.209984e-06 -1.269813e-07 0.000000e+00 1.390421e-06 -1.136166e-07 0.000000e+00 1.581128e-06 -9.973208e-08 0.000000e+00 1.799928e-06 -8.031171e-08 0.000000e+00 2.028045e-06 -6.609934e-08 0.000000e+00 2.273957e-06 -5.116875e-08 0.000000e+00 2.552631e-06 -3.298450e-08 0.000000e+00 2.853105e-06 -1.752889e-08 0.000000e+00 3.183666e-06 1.632622e-09 0.000000e+00 3.534886e-06 2.069697e-08 0.000000e+00 3.939669e-06 4.034645e-08 0.000000e+00 4.369669e-06 5.747819e-08 0.000000e+00 4.851608e-06 9.622727e-08 0.000000e+00 5.391971e-06 1.290283e-07 0.000000e+00 6.023316e-06 1.653662e-07 0.000000e+00 6.719690e-06 2.673112e-07 0.000000e+00 7.477230e-06 5.211028e-07 0.000000e+00 8.008643e-06 1.289205e-05 0.000000e+00 8.768708e-06 1.976435e-05 0.000000e+00 9.403561e-06 2.621474e-05 0.000000e+00 1.016086e-05 3.166870e-05 0.000000e+00 7.600629e-06 3.741028e-05 0.000000e+00 8.393412e-06 4.184820e-05 0.000000e+00 7.828126e-06 4.901601e-05 0.000000e+00 7.827229e-06 5.742025e-05 0.000000e+00 6.601142e-06 6.536970e-05 0.000000e+00 8.648533e-08 6.932559e-05 0.000000e+00 -6.874828e-06 6.960304e-05 0.000000e+00 -1.341669e-05 6.893968e-05 0.000000e+00 -2.084065e-05 6.877191e-05 0.000000e+00 -2.799031e-05 3.404773e-05 0.000000e+00 -2.999296e-05 5.529311e-05 0.000000e+00 -2.974126e-05 4.564608e-05 0.000000e+00 -2.578106e-05 2.149955e-05 0.000000e+00 -2.198677e-05 8.995330e-06 0.000000e+00 -9.629578e-06 -6.212576e-06 0.000000e+00 3.128785e-07 -5.363584e-07 0.000000e+00 4.732133e-07 -4.675464e-07 0.000000e+00 1.037306e-06 -2.975452e-07 0.000000e+00 8.762059e-07 -3.240006e-07 0.000000e+00 3.900265e-07 -5.116070e-07 0.000000e+00 9.619512e-07 -2.996094e-07 0.000000e+00 7.907755e-07 -3.724832e-07 0.000000e+00 1.806877e-06 -1.564360e-07 0.000000e+00 1.578170e-06 -2.045748e-07 0.000000e+00 5.923440e-06 3.976715e-07 0.000000e+00 1.692877e-06 -1.767430e-07 0.000000e+00 1.478088e-06 -2.192295e-07 0.000000e+00 2.278595e-06 -1.000973e-07 0.000000e+00 2.567182e-06 -5.856907e-08 0.000000e+00 2.426410e-06 -7.857266e-08 0.000000e+00 2.145564e-06 -1.183088e-07 0.000000e+00 3.030467e-06 -5.324858e-09 0.000000e+00 3.979213e-06 9.968416e-08 0.000000e+00 3.372295e-06 3.572614e-08 0.000000e+00 3.761893e-06 8.285910e-08 0.000000e+00 5.395607e-06 2.976482e-07 0.000000e+00 4.829913e-06 2.312366e-07 0.000000e+00 3.563526e-06 5.827462e-08 0.000000e+00 5.112575e-06 2.680812e-07 0.000000e+00 4.585007e-06 1.894212e-07 0.000000e+00 5.701659e-06 3.058534e-07 0.000000e+00 6.165899e-06 2.109331e-05 0.000000e+00 6.778142e-06 1.512521e-06 0.000000e+00 7.002198e-06 2.760373e-05 0.000000e+00 5.917385e-06 1.783295e-05 0.000000e+00 5.499575e-06 1.454407e-05 0.000000e+00 6.677566e-06 9.704904e-07 0.000000e+00 6.508328e-06 2.439445e-05 0.000000e+00 7.336498e-06 9.706995e-06 0.000000e+00 5.646502e-06 4.257303e-05 0.000000e+00 8.220831e-06 3.320926e-05 0.000000e+00 6.346591e-06 3.971842e-05 0.000000e+00 -2.199844e-05 6.473020e-05 0.000000e+00 4.816696e-06 4.598808e-05 0.000000e+00 -1.589714e-05 6.676429e-05 0.000000e+00 -5.213659e-06 6.689312e-05 0.000000e+00 4.645576e-06 5.927542e-05 0.000000e+00 4.245576e-06 6.297809e-05 0.000000e+00 1.631760e-07 -5.233241e-07 0.000000e+00 2.350816e-06 6.625402e-05 0.000000e+00 -1.641518e-06 6.612992e-05 0.000000e+00 -2.578362e-05 4.354077e-05 0.000000e+00 -1.866704e-05 6.585828e-05 0.000000e+00 -2.663299e-05 4.831872e-05 0.000000e+00 -2.410425e-05 3.769764e-05 0.000000e+00 -2.607779e-05 6.301511e-05 0.000000e+00 -2.203271e-05 2.443881e-05 0.000000e+00 -1.717227e-05 4.911111e-06 0.000000e+00 -2.689577e-05 5.261013e-05 0.000000e+00 -2.325467e-05 3.064357e-05 0.000000e+00 -1.676649e-05 1.258541e-06 0.000000e+00 -1.147205e-05 -4.656921e-06 0.000000e+00 -1.602563e-05 -2.000760e-06 0.000000e+00 2.410345e-07 -5.265704e-07 0.000000e+00 3.204120e-06 1.608812e-08 0.000000e+00 7.494202e-06 3.078076e-06 0.000000e+00 -2.635558e-05 5.758813e-05 0.000000e+00 -7.362980e-06 -6.622640e-06 0.000000e+00 1.216522e-06 -2.476806e-07 0.000000e+00 8.569460e-07 6.363250e-05 0.000000e+00 2.355199e-06 6.133755e-05 0.000000e+00 5.493746e-06 5.557062e-05 0.000000e+00 4.997855e-06 4.944470e-05 0.000000e+00 2.688121e-06 4.278715e-05 0.000000e+00 -2.578800e-06 3.796152e-05 0.000000e+00 -8.365323e-06 3.614182e-05 0.000000e+00 -1.407752e-05 3.744710e-05 0.000000e+00 -1.681198e-05 3.955810e-05 0.000000e+00 -1.909796e-05 4.241364e-05 0.000000e+00 -2.064905e-05 4.551434e-05 0.000000e+00 -2.174450e-05 5.215656e-05 0.000000e+00 -2.131267e-05 5.525855e-05 0.000000e+00 -2.057187e-05 5.847801e-05 0.000000e+00 -1.641237e-05 6.399358e-05 0.000000e+00 -1.371323e-05 6.561462e-05 0.000000e+00 7.946618e-06 6.328027e-06 0.000000e+00 4.927895e-06 1.089239e-05 0.000000e+00 -6.868241e-06 -5.065778e-06 0.000000e+00 5.622779e-06 7.720513e-06 0.000000e+00 -2.585771e-08 -6.553016e-07 0.000000e+00 6.263425e-07 -4.363551e-07 0.000000e+00 1.914591e-06 -1.444358e-07 0.000000e+00 1.126509e-06 -2.716205e-07 0.000000e+00 2.719685e-06 -4.294215e-08 0.000000e+00 4.187777e-06 1.047318e-07 0.000000e+00 6.764141e-06 2.577022e-06 0.000000e+00 7.553520e-06 3.045080e-05 0.000000e+00 6.200239e-06 5.125412e-07 0.000000e+00 -2.062232e-05 1.821182e-05 0.000000e+00 6.492677e-06 3.483286e-05 0.000000e+00 -5.148751e-06 -5.407843e-06 0.000000e+00 -8.642358e-06 -4.523215e-06 0.000000e+00 5.532413e-07 -4.389495e-07 0.000000e+00 -1.744436e-05 8.645250e-06 0.000000e+00 6.069383e-06 4.761778e-06 0.000000e+00 -1.456616e-05 -4.316187e-06 0.000000e+00 -8.214392e-06 6.705460e-05 0.000000e+00 1.303573e-06 -2.315871e-07 0.000000e+00 -1.115443e-05 6.664423e-05 0.000000e+00 -1.923787e-05 6.200538e-05 0.000000e+00 -2.155447e-05 4.885946e-05 0.000000e+00 -2.220479e-05 4.243628e-05 0.000000e+00 -1.122565e-05 3.638799e-05 0.000000e+00 -5.460874e-06 3.654888e-05 0.000000e+00 4.081515e-07 3.980044e-05 0.000000e+00 5.672162e-06 5.231301e-05 0.000000e+00 7.345762e-08 -5.734793e-07 0.000000e+00 7.069471e-07 -4.104161e-07 0.000000e+00 1.395860e-06 -2.207241e-07 0.000000e+00 2.028403e-06 -1.332651e-07 0.000000e+00 2.860536e-06 -2.713766e-08 0.000000e+00 4.364693e-06 1.458909e-07 0.000000e+00 6.470711e-06 6.772342e-07 0.000000e+00 -1.921203e-05 1.274535e-05 0.000000e+00 -3.789840e-06 -4.353656e-06 0.000000e+00 -4.798199e-06 -4.171861e-06 0.000000e+00 -3.435052e-06 -4.920295e-06 0.000000e+00 -3.070507e-06 -3.466617e-06 0.000000e+00 -2.566397e-06 -3.752645e-06 0.000000e+00 2.643485e-07 -8.368972e-07 0.000000e+00 1.424995e-06 -3.398980e-07 0.000000e+00 4.438614e-06 3.335867e-07 0.000000e+00 2.095562e-06 -1.722063e-07 0.000000e+00 -1.601949e-05 1.544846e-05 0.000000e+00 3.758492e-06 1.702822e-07 0.000000e+00 3.574866e-06 2.256013e-05 0.000000e+00 9.906188e-07 -4.859582e-07 0.000000e+00 3.311938e-06 1.927212e-05 0.000000e+00 4.930415e-06 3.722700e-05 0.000000e+00 4.737949e-06 2.928432e-05 0.000000e+00 5.868604e-06 2.934096e-06 0.000000e+00 5.475299e-06 3.223274e-05 0.000000e+00 3.175172e-06 1.603151e-05 0.000000e+00 5.892493e-06 1.912316e-06 0.000000e+00 4.034583e-06 2.605374e-05 0.000000e+00 4.502551e-06 6.029214e-06 0.000000e+00 -1.365636e-05 6.388996e-06 0.000000e+00 -2.351241e-05 4.655203e-05 0.000000e+00 -1.726699e-05 2.151353e-05 0.000000e+00 -6.287541e-06 -3.499052e-06 0.000000e+00 4.973310e-07 -7.048917e-07 0.000000e+00 7.645597e-07 -5.429066e-07 0.000000e+00 -1.313486e-05 -2.548715e-07 0.000000e+00 3.635069e-06 3.980630e-05 0.000000e+00 2.712421e-06 1.294255e-05 0.000000e+00 -2.410853e-05 5.042217e-05 0.000000e+00 -1.332789e-05 3.384903e-05 0.000000e+00 -6.887755e-06 3.325591e-05 0.000000e+00 -9.329873e-06 -3.157365e-06 0.000000e+00 -1.245762e-05 -2.648085e-06 0.000000e+00 -5.946167e-07 3.642427e-05 0.000000e+00 -3.075270e-06 3.392233e-05 0.000000e+00 -1.011344e-05 3.327920e-05 0.000000e+00 -1.663475e-05 3.544938e-05 0.000000e+00 -1.987815e-05 3.847986e-05 0.000000e+00 -2.403921e-05 5.400851e-05 0.000000e+00 -2.312400e-05 5.724535e-05 0.000000e+00 -1.798421e-06 -2.934098e-06 0.000000e+00 -3.818480e-06 -3.073974e-06 0.000000e+00 -1.269724e-05 2.811884e-06 0.000000e+00 3.557932e-07 -7.653708e-07 0.000000e+00 2.795993e-06 -2.305721e-08 0.000000e+00 1.335901e-06 -3.549274e-07 0.000000e+00 9.173162e-07 -4.764531e-07 0.000000e+00 1.764394e-06 -2.313758e-07 0.000000e+00 3.528507e-06 1.261619e-07 0.000000e+00 4.218302e-06 2.610026e-07 0.000000e+00 5.900525e-06 1.335805e-06 0.000000e+00 4.977502e-06 4.878863e-07 0.000000e+00 2.395306e-06 -1.058794e-07 0.000000e+00 3.346650e-06 8.132907e-08 0.000000e+00 1.675876e-06 -2.442803e-07 0.000000e+00 5.369862e-06 5.377955e-07 0.000000e+00 4.453897e-07 -6.784039e-07 0.000000e+00 3.610251e-06 8.193207e-06 0.000000e+00 4.696304e-06 4.124373e-07 0.000000e+00 -1.861093e-05 2.752102e-05 0.000000e+00 5.674110e-07 -6.956240e-07 0.000000e+00 3.163026e-06 4.465217e-08 0.000000e+00 -2.294202e-05 6.063075e-05 0.000000e+00 4.046041e-06 1.806062e-07 0.000000e+00 2.080652e-06 3.693456e-05 0.000000e+00 1.972511e-06 -1.978279e-07 0.000000e+00 2.977441e-06 1.168898e-08 0.000000e+00 -1.574452e-05 3.087325e-05 0.000000e+00 8.622096e-07 -4.550056e-07 0.000000e+00 1.776166e-07 -8.723875e-07 0.000000e+00 1.188124e-06 -3.762159e-07 0.000000e+00 6.576064e-07 -6.393870e-07 0.000000e+00 -1.469698e-05 1.051906e-05 0.000000e+00 2.546702e-06 -7.509086e-08 0.000000e+00 5.593275e-06 7.318373e-07 0.000000e+00 2.068847e-06 1.022423e-05 0.000000e+00 -8.428861e-08 -1.014347e-06 0.000000e+00 1.114388e-06 -3.847584e-07 0.000000e+00 1.333174e-07 -7.916377e-07 0.000000e+00 -1.502700e-06 -3.076656e-06 0.000000e+00 5.133974e-08 -8.267611e-07 0.000000e+00 2.244624e-06 -1.369003e-07 0.000000e+00 1.542625e-06 -2.998281e-07 0.000000e+00 -1.970816e-05 3.323910e-05 0.000000e+00 -2.197971e-06 -3.882995e-06 0.000000e+00 -2.158442e-06 -2.643853e-06 0.000000e+00 -1.202782e-06 -3.178503e-06 0.000000e+00 -7.496356e-07 -2.449141e-06 0.000000e+00 -6.007520e-07 -2.345556e-06 0.000000e+00 -2.618023e-07 -1.845941e-06 0.000000e+00 -2.408159e-07 -1.774365e-06 0.000000e+00 -3.101983e-07 -1.882724e-06 0.000000e+00 5.174915e-08 -1.286175e-06 0.000000e+00 -5.747370e-07 -2.409542e-06 0.000000e+00 -2.339328e-07 -1.542676e-06 0.000000e+00 -8.900751e-07 -2.392744e-06 0.000000e+00 -1.268355e-08 -1.185677e-06 0.000000e+00 1.278690e-06 -3.378865e-07 0.000000e+00 1.868841e-06 -2.158571e-07 0.000000e+00 -1.250481e-05 1.851327e-05 0.000000e+00 1.023874e-06 -5.382352e-07 0.000000e+00 2.649076e-06 -5.581908e-08 0.000000e+00 5.783704e-06 9.560976e-07 0.000000e+00 3.670450e-06 3.424773e-05 0.000000e+00 -4.571783e-06 -2.351545e-06 0.000000e+00 9.019349e-07 2.417917e-05 0.000000e+00 4.973281e-06 3.053250e-06 0.000000e+00 -1.390893e-05 2.517861e-05 0.000000e+00 -7.156384e-06 -2.155477e-06 0.000000e+00 4.663681e-06 8.156090e-07 0.000000e+00 5.068468e-06 4.249787e-06 0.000000e+00 4.268724e-07 3.370026e-05 0.000000e+00 2.113384e-07 -1.069165e-06 0.000000e+00 -2.436158e-06 -4.456152e-06 0.000000e+00 9.513559e-07 1.450620e-05 0.000000e+00 3.003088e-06 6.154416e-06 0.000000e+00 3.889544e-08 -1.417796e-06 0.000000e+00 -1.007355e-05 -1.385930e-06 0.000000e+00 -5.381532e-06 3.008003e-05 0.000000e+00 1.198063e-07 -1.362277e-06 0.000000e+00 3.296485e-07 2.059748e-05 0.000000e+00 1.673279e-06 -3.032465e-07 0.000000e+00 1.902105e-06 7.948561e-06 0.000000e+00 1.136034e-06 -4.968530e-07 0.000000e+00 -1.151414e-05 1.270070e-05 0.000000e+00 3.962202e-06 4.196888e-07 0.000000e+00 3.991945e-06 4.446656e-06 0.000000e+00 3.195762e-06 1.629675e-07 0.000000e+00 2.668482e-06