<VTKFile type="UnstructuredGrid" version="0.1" byte_order="LittleEndian">
<UnstructuredGrid>
<Piece NumberOfPoints="1187" NumberOfCells="1187">
<Points>
 <DataArray type="Float64" NumberOfComponents="3" format="ascii"> -2.332000e-02 1.736043e-04 0.000000e+00 -2.232320e-02 1.539420e-04 0.000000e+00 -2.136317e-02 1.603477e-04 0.000000e+00 -2.040513e-02 1.642530e-04 0.000000e+00 -1.944433e-02 1.655560e-04 0.000000e+00 -1.848023e-02 1.652967e-04 0.000000e+00 -1.751903e-02 1.563843e-04 0.000000e+00 -1.656200e-02 1.559450e-04 0.000000e+00 -1.560550e-02 1.591977e-04 0.000000e+00 -1.464463e-02 1.630360e-04 0.000000e+00 -1.368757e-02 1.657183e-04 0.000000e+00 -1.272113e-02 1.614177e-04 0.000000e+00 -1.176670e-02 1.655930e-04 0.000000e+00 -1.080180e-02 1.615147e-04 0.000000e+00 -9.848193e-03 1.588433e-04 0.000000e+00 -8.875250e-03 1.613557e-04 0.000000e+00 -7.915243e-03 1.670577e-04 0.000000e+00 -6.956947e-03 1.640973e-04 0.000000e+00 -6.006427e-03 1.415340e-04 0.000000e+00 -5.035117e-03 1.576240e-04 0.000000e+00 -4.075140e-03 1.611887e-04 0.000000e+00 -3.122987e-03 1.483890e-04 0.000000e+00 -2.163810e-03 1.587610e-04 0.000000e+00 -1.195820e-03 1.744137e-04 0.000000e+00 -1.989733e-04 2.049480e-04 0.000000e+00 5.899183e-03 6.880700e-04 0.000000e+00 9.634380e-03 8.314163e-04 0.000000e+00 1.288147e-02 8.811043e-04 0.000000e+00 1.556457e-02 8.507557e-04 0.000000e+00 1.625697e-02 1.110600e-03 0.000000e+00 1.714523e-02 1.943163e-03 0.000000e+00 1.858460e-02 2.346393e-03 0.000000e+00 2.161180e-02 2.502910e-03 0.000000e+00 2.617350e-02 2.524113e-03 0.000000e+00 3.137873e-02 2.639627e-03 0.000000e+00 3.752137e-02 3.008683e-03 0.000000e+00 3.776597e-02 6.166347e-03 0.000000e+00 3.784643e-02 1.101230e-02 0.000000e+00 3.786090e-02 1.518913e-02 0.000000e+00 3.783230e-02 1.955867e-02 0.000000e+00 3.754713e-02 2.470217e-02 0.000000e+00 3.723927e-02 2.790707e-02 0.000000e+00 3.628640e-02 2.608390e-02 0.000000e+00 3.611833e-02 2.912723e-02 0.000000e+00 3.408643e-02 2.912723e-02 0.000000e+00 3.087660e-02 2.921273e-02 0.000000e+00 2.501827e-02 2.926087e-02 0.000000e+00 1.904280e-02 2.911593e-02 0.000000e+00 1.198477e-02 2.896897e-02 0.000000e+00 3.632203e-03 2.877927e-02 0.000000e+00 -6.986700e-03 2.871053e-02 0.000000e+00 -1.324537e-02 2.870067e-02 0.000000e+00 -1.980157e-02 2.827160e-02 0.000000e+00 -1.603787e-02 2.697227e-02 0.000000e+00 -2.214197e-02 2.605700e-02 0.000000e+00 -2.292793e-02 2.020170e-02 0.000000e+00 3.262367e-02 1.308173e-02 0.000000e+00 3.230910e-02 1.158190e-02 0.000000e+00 3.163363e-02 1.021931e-02 0.000000e+00 3.067930e-02 9.118857e-03 0.000000e+00 2.954320e-02 8.202103e-03 0.000000e+00 2.821697e-02 7.534673e-03 0.000000e+00 2.677307e-02 7.219233e-03 0.000000e+00 2.535023e-02 7.229130e-03 0.000000e+00 2.386283e-02 7.541663e-03 0.000000e+00 2.245127e-02 8.173457e-03 0.000000e+00 2.127943e-02 9.111423e-03 0.000000e+00 2.036480e-02 1.024937e-02 0.000000e+00 1.971930e-02 1.160353e-02 0.000000e+00 1.938457e-02 1.303760e-02 0.000000e+00 1.937697e-02 1.447027e-02 0.000000e+00 1.966720e-02 1.588373e-02 0.000000e+00 2.030720e-02 1.725297e-02 0.000000e+00 2.126137e-02 1.847507e-02 0.000000e+00 2.246777e-02 1.943387e-02 0.000000e+00 2.380200e-02 2.006090e-02 0.000000e+00 2.519913e-02 2.038260e-02 0.000000e+00 2.659083e-02 2.039017e-02 0.000000e+00 2.803923e-02 2.009040e-02 0.000000e+00 2.941547e-02 1.950650e-02 0.000000e+00 3.063903e-02 1.857997e-02 0.000000e+00 3.163043e-02 1.731373e-02 0.000000e+00 3.228907e-02 1.595550e-02 0.000000e+00 3.260633e-02 1.455787e-02 0.000000e+00 3.678733e-02 4.307610e-03 0.000000e+00 -2.364000e-02 1.736043e-04 0.000000e+00 -2.281467e-02 1.631223e-04 0.000000e+00 -2.309467e-02 3.367267e-04 0.000000e+00 -2.257787e-02 3.170643e-04 0.000000e+00 -2.184373e-02 1.550423e-04 0.000000e+00 -2.160690e-02 3.153900e-04 0.000000e+00 -2.087983e-02 1.651600e-04 0.000000e+00 -1.992243e-02 1.635233e-04 0.000000e+00 -1.896147e-02 1.715653e-04 0.000000e+00 -1.920580e-02 3.371213e-04 0.000000e+00 -1.872170e-02 3.368620e-04 0.000000e+00 -1.799830e-02 1.583367e-04 0.000000e+00 -1.704340e-02 1.550750e-04 0.000000e+00 -1.607933e-02 1.567140e-04 0.000000e+00 -1.512317e-02 1.617350e-04 0.000000e+00 -1.536867e-02 3.209327e-04 0.000000e+00 -1.488780e-02 3.247710e-04 0.000000e+00 -1.417147e-02 1.657430e-04 0.000000e+00 -1.320137e-02 1.615120e-04 0.000000e+00 -1.224380e-02 1.628883e-04 0.000000e+00 -1.248493e-02 3.243060e-04 0.000000e+00 -1.201050e-02 3.284813e-04 0.000000e+00 -1.128930e-02 1.641377e-04 0.000000e+00 -1.032373e-02 1.591453e-04 0.000000e+00 -9.361707e-03 1.591803e-04 0.000000e+00 -9.609900e-03 3.180237e-04 0.000000e+00 -9.116957e-03 3.205360e-04 0.000000e+00 -8.396620e-03 1.641813e-04 0.000000e+00 -8.151863e-03 3.312390e-04 0.000000e+00 -7.440907e-03 1.688460e-04 0.000000e+00 -6.475497e-03 1.541883e-04 0.000000e+00 -5.522450e-03 1.401560e-04 0.000000e+00 -5.768877e-03 2.816900e-04 0.000000e+00 -5.277567e-03 2.977800e-04 0.000000e+00 -4.557890e-03 1.618643e-04 0.000000e+00 -3.599783e-03 1.586310e-04 0.000000e+00 -2.639110e-03 1.465977e-04 0.000000e+00 -1.678670e-03 1.661163e-04 0.000000e+00 -1.922480e-03 3.248773e-04 0.000000e+00 -1.434490e-03 3.405300e-04 0.000000e+00 -7.058257e-04 1.853213e-04 0.000000e+00 4.950083e-03 1.130889e-03 0.000000e+00 3.849230e-03 5.918352e-04 0.000000e+00 7.838260e-03 7.557517e-04 0.000000e+00 1.133543e-02 8.656797e-04 0.000000e+00 1.427630e-02 8.817397e-04 0.000000e+00 1.640513e-02 1.806197e-03 0.000000e+00 1.733643e-02 2.723213e-03 0.000000e+00 1.805710e-02 2.874010e-03 0.000000e+00 1.993840e-02 2.425463e-03 0.000000e+00 2.375830e-02 2.577830e-03 0.000000e+00 2.505957e-02 3.101943e-03 0.000000e+00 3.005377e-02 3.205280e-03 0.000000e+00 2.871977e-02 2.565653e-03 0.000000e+00 3.409720e-02 2.803037e-03 0.000000e+00 3.707943e-02 7.335193e-03 0.000000e+00 3.781347e-02 8.701033e-03 0.000000e+00 3.715990e-02 9.769497e-03 0.000000e+00 3.788740e-02 1.314723e-02 0.000000e+00 3.774823e-02 1.729790e-02 0.000000e+00 3.770757e-02 2.198053e-02 0.000000e+00 1.732697e-02 2.813503e-02 0.000000e+00 1.557927e-02 2.901910e-02 0.000000e+00 3.269900e-02 2.833997e-02 0.000000e+00 2.935370e-02 2.845227e-02 0.000000e+00 2.781170e-02 2.923953e-02 0.000000e+00 2.639500e-02 2.850040e-02 0.000000e+00 2.223157e-02 2.922417e-02 0.000000e+00 1.381527e-02 2.798807e-02 0.000000e+00 8.031137e-03 2.889270e-02 0.000000e+00 -4.123090e-03 2.728437e-02 0.000000e+00 -1.198417e-03 2.857383e-02 0.000000e+00 -1.002719e-02 2.741120e-02 0.000000e+00 3.294570e-02 1.223310e-02 0.000000e+00 3.308240e-02 1.382250e-02 0.000000e+00 3.240927e-02 1.066846e-02 0.000000e+00 3.151247e-02 9.382083e-03 0.000000e+00 3.036437e-02 8.311407e-03 0.000000e+00 2.906530e-02 7.459887e-03 0.000000e+00 2.756433e-02 6.933003e-03 0.000000e+00 2.604700e-02 6.802027e-03 0.000000e+00 2.451277e-02 6.968320e-03 0.000000e+00 2.295897e-02 7.446843e-03 0.000000e+00 2.158077e-02 8.277360e-03 0.000000e+00 2.046297e-02 9.380470e-03 0.000000e+00 1.962013e-02 1.072123e-02 0.000000e+00 1.909593e-02 1.221973e-02 0.000000e+00 1.891300e-02 1.375080e-02 0.000000e+00 1.906483e-02 1.527593e-02 0.000000e+00 1.955993e-02 1.677317e-02 0.000000e+00 2.042313e-02 1.817600e-02 0.000000e+00 2.157573e-02 1.932917e-02 0.000000e+00 2.294480e-02 2.016120e-02 0.000000e+00 2.440160e-02 2.064950e-02 0.000000e+00 2.589963e-02 2.081680e-02 0.000000e+00 2.739473e-02 2.065897e-02 0.000000e+00 2.894647e-02 2.018490e-02 0.000000e+00 3.032357e-02 1.941143e-02 0.000000e+00 3.151980e-02 1.822977e-02 0.000000e+00 3.238047e-02 1.681127e-02 0.000000e+00 3.289473e-02 1.536320e-02 0.000000e+00 -1.138429e-03 8.096280e-03 0.000000e+00 -2.208693e-02 3.089843e-04 0.000000e+00 -2.112300e-02 3.255077e-04 0.000000e+00 -2.016757e-02 3.277763e-04 0.000000e+00 -1.775733e-02 3.147210e-04 0.000000e+00 -1.823853e-02 3.236333e-04 0.000000e+00 -1.728243e-02 3.114593e-04 0.000000e+00 -1.632133e-02 3.126590e-04 0.000000e+00 -1.393903e-02 3.314613e-04 0.000000e+00 -1.441610e-02 3.287790e-04 0.000000e+00 -1.344893e-02 3.272303e-04 0.000000e+00 -1.105110e-02 3.256523e-04 0.000000e+00 -1.153600e-02 3.297307e-04 0.000000e+00 -1.056553e-02 3.206600e-04 0.000000e+00 -8.631870e-03 3.255370e-04 0.000000e+00 -7.676150e-03 3.359037e-04 0.000000e+00 -6.712443e-03 3.182857e-04 0.000000e+00 -4.313030e-03 3.230530e-04 0.000000e+00 -4.793007e-03 3.194883e-04 0.000000e+00 -3.834923e-03 3.198197e-04 0.000000e+00 -2.882097e-03 2.949867e-04 0.000000e+00 -4.247990e-04 3.902693e-04 0.000000e+00 -9.416457e-04 3.597350e-04 0.000000e+00 6.837617e-03 1.229541e-03 0.000000e+00 1.043452e-02 1.369913e-03 0.000000e+00 1.359147e-02 1.341531e-03 0.000000e+00 1.928013e-02 2.771857e-03 0.000000e+00 2.269583e-02 3.080740e-03 0.000000e+00 2.752970e-02 3.089767e-03 0.000000e+00 3.266823e-02 3.442663e-03 0.000000e+00 3.723383e-02 1.202530e-02 0.000000e+00 3.710913e-02 1.624160e-02 0.000000e+00 3.703987e-02 2.079103e-02 0.000000e+00 2.364283e-02 2.848503e-02 0.000000e+00 1.001834e-02 2.786167e-02 0.000000e+00 1.148280e-03 2.735310e-02 0.000000e+00 -2.187153e-02 1.781887e-02 0.000000e+00 -1.584483e-02 3.159117e-04 0.000000e+00 -2.402920e-03 3.053587e-04 0.000000e+00 1.209650e-02 1.370374e-03 0.000000e+00 1.496447e-02 1.270496e-03 0.000000e+00 3.675470e-02 2.326907e-02 0.000000e+00 -1.968677e-02 3.290793e-04 0.000000e+00 -2.064497e-02 3.294130e-04 0.000000e+00 -1.680540e-02 3.110200e-04 0.000000e+00 -1.296250e-02 3.229297e-04 0.000000e+00 -1.009193e-02 3.179887e-04 0.000000e+00 -6.241923e-03 2.957223e-04 0.000000e+00 -7.197853e-03 3.329433e-04 0.000000e+00 -3.362770e-03 3.070200e-04 0.000000e+00 8.672683e-03 1.313877e-03 0.000000e+00 2.076100e-02 2.928373e-03 0.000000e+00 3.708053e-02 1.843863e-02 0.000000e+00 3.724830e-02 1.411830e-02 0.000000e+00 2.070107e-02 2.834010e-02 0.000000e+00 5.806120e-03 2.767197e-02 0.000000e+00 -2.113147e-02 6.741743e-04 0.000000e+00 -2.017700e-02 6.675697e-04 0.000000e+00 -1.681017e-02 6.413607e-04 0.000000e+00 -1.776050e-02 6.320880e-04 0.000000e+00 -2.065687e-02 6.803663e-04 0.000000e+00 -2.042647e-02 8.549997e-04 0.00000
[...]
<PointData Scalars="" Vectors="IST_PrincipalStressTensor IST_PrincStressVector1 " Tensors="IST_StressTensor IST_StrainTensor " >
  <DataArray type="Float64" Name="IST_StressTensor" NumberOfComponents="9" format="ascii">-1.739273e+01 -6.903692e+00 0.000000e+00 -6.903692e+00 -1.381989e+02 0.000000e+00 0.000000e+00 0.000000e+00 0.000000e+00 -5.609329e+00 -3.132654e+00 0.000000e+00 -3.132654e+00 -1.235102e+02 0.000000e+00 0.000000e+00 0.000000e+00 0.000000e+00 5.408033e-01 -2.287471e+00 0.000000e+00 -2.287471e+00 -1.101365e+02 0.000000e+00 0.000000e+00 0.000000e+00 0.000000e+00 4.575874e+00 -2.038630e+00 0.000000e+00 -2.038630e+00 -9.747004e+01 0.000000e+00 0.000000e+00 0.000000e+00 0.000000e+00 8.373781e+00 -2.022087e+00 0.000000e+00 -2.022087e+00 -8.585684e+01 0.000000e+00 0.000000e+00 0.000000e+00 0.000000e+00 1.233133e+01 -2.066444e+00 0.000000e+00 -2.066444e+00 -7.452920e+01 0.000000e+00 0.000000e+00 0.000000e+00 0.000000e+00 1.674828e+01 -1.951701e+00 0.000000e+00 -1.951701e+00 -6.421655e+01 0.000000e+00 0.000000e+00 0.000000e+00 0.000000e+00 2.149312e+01 -2.026548e+00 0.000000e+00 -2.026548e+00 -5.438683e+01 0.000000e+00 0.000000e+00 0.000000e+00 0.000000e+00 2.672903e+01 -2.124660e+00 0.000000e+00 -2.124660e+00 -4.501287e+01 0.000000e+00 0.000000e+00 0.000000e+00 0.000000e+00 3.237677e+01 -2.260496e+00 0.000000e+00 -2.260496e+00 -3.600061e+01 0.000000e+00 0.000000e+00 0.000000e+00 0.000000e+00 3.837798e+01 -2.437322e+00 0.000000e+00 -2.437322e+00 -2.676484e+01 0.000000e+00 0.000000e+00 0.000000e+00 0.000000e+00 4.506461e+01 -2.476078e+00 0.000000e+00 -2.476078e+00 -1.809606e+01 0.000000e+00 0.000000e+00 0.000000e+00 0.000000e+00 5.227451e+01 -2.697840e+00 0.000000e+00 -2.697840e+00 -9.466791e+00 0.000000e+00 0.000000e+00 0.000000e+00 0.000000e+00 5.995947e+01 -2.861856e+00 0.000000e+00 -2.861856e+00 -6.936600e-02 0.000000e+00 0.000000e+00 0.000000e+00 0.000000e+00 6.853551e+01 -3.005133e+00 0.000000e+00 -3.005133e+00 9.212707e+00 0.000000e+00 0.000000e+00 0.000000e+00 0.000000e+00 7.770089e+01 -3.379122e+00 0.000000e+00 -3.379122e+00 1.979464e+01 0.000000e+00 0.000000e+00 0.000000e+00 0.000000e+00 8.790969e+01 -3.858812e+00 0.000000e+00 -3.858812e+00 3.118768e+01 0.000000e+00 0.000000e+00 0.000000e+00 0.000000e+00 9.977639e+01 -4.335623e+00 0.000000e+00 -4.335623e+00 4.289346e+01 0.000000e+00 0.000000e+00 0.000000e+00 0.000000e+00 1.131637e+02 -4.433004e+00 0.000000e+00 -4.433004e+00 5.754169e+01 0.000000e+00 0.000000e+00 0.000000e+00 0.000000e+00 1.290808e+02 -5.898314e+00 0.000000e+00 -5.898314e+00 7.388484e+01 0.000000e+00 0.000000e+00 0.000000e+00 0.000000e+00 1.491375e+02 -7.641436e+00 0.000000e+00 -7.641436e+00 9.368970e+01 0.000000e+00 0.000000e+00 0.000000e+00 0.000000e+00 1.765841e+02 -1.006805e+01 0.000000e+00 -1.006805e+01 1.203999e+02 0.000000e+00 0.000000e+00 0.000000e+00 0.000000e+00 2.184748e+02 -1.749197e+01 0.000000e+00 -1.749197e+01 1.583722e+02 0.000000e+00 0.000000e+00 0.000000e+00 0.000000e+00 2.984458e+02 -4.252196e+01 0.000000e+00 -4.252196e+01 2.310604e+02 0.000000e+00 0.000000e+00 0.000000e+00 0.000000e+00 4.533710e+02 -1.354505e+02 0.000000e+00 -1.354505e+02 4.654480e+02 0.000000e+00 0.000000e+00 0.000000e+00 0.000000e+00 5.032550e+01 2.598480e+00 0.000000e+00 2.598480e+00 1.714054e+00 0.000000e+00 0.000000e+00 0.000000e+00 0.000000e+00 4.411457e+01 2.978631e+00 0.000000e+00 2.978631e+00 -7.297260e-01 0.000000e+00 0.000000e+00 0.000000e+00 0.000000e+00 3.405109e+01 4.010839e+00 0.000000e+00 4.010839e+00 -4.528352e-01 0.000000e+00 0.000000e+00 0.000000e+00 0.000000e+00 1.756407e+01 5.367896e+00 0.000000e+00 5.367896e+00 8.733156e-01 0.000000e+00 0.000000e+00 0.000000e+00 0.000000e+00 2.147789e+01 6.272080e+00 0.000000e+00 6.272080e+00 2.441895e+00 0.000000e+00 0.000000e+00 0.000000e+00 0.000000e+00 3.757369e+01 1.398160e+01 0.000000e+00 1.398160e+01 6.799017e+00 0.000000e+00 0.000000e+00 0.000000e+00 0.000000e+00 4.400570e+01 9.765170e+00 0.000000e+00 9.765170e+00 5.000361e+00 0.000000e+00 0.000000e+00 0.000000e+00 0.000000e+00 1.075301e+01 5.202889e+00 0.000000e+00 5.202889e+00 8.939997e-01 0.000000e+00 0.000000e+00 0.000000e+00 0.000000e+00 -8.353632e+00 2.787869e+00 0.000000e+00 2.787869e+00 3.088868e+00 0.000000e+00 0.000000e+00 0.000000e+00 0.000000e+00 -7.504896e+00 -1.612457e+00 0.000000e+00 -1.612457e+00 9.904032e-01 0.000000e+00 0.000000e+00 0.000000e+00 0.000000e+00 -6.738984e-01 -6.945912e-01 0.000000e+00 -6.945912e-01 -7.159194e-01 0.000000e+00 0.000000e+00 0.000000e+00 0.000000e+00 -1.884945e-01 -7.591676e-01 0.000000e+00 -7.591676e-01 -2.827301e+00 0.000000e+00 0.000000e+00 0.000000e+00 0.000000e+00 7.395109e-01 6.832735e-01 0.000000e+00 6.832735e-01 -4.251273e+00 0.000000e+00 0.000000e+00 0.000000e+00 0.000000e+00 -5.433307e-02 1.330148e+00 0.000000e+00 1.330148e+00 4.723212e-01 0.000000e+00 0.000000e+00 0.000000e+00 0.000000e+00 -5.643853e-01 4.841687e-01 0.000000e+00 4.841687e-01 4.297605e+00 0.000000e+00 0.000000e+00 0.000000e+00 0.000000e+00 -2.928384e-01 -7.475499e-01 0.000000e+00 -7.475499e-01 2.496729e+00 0.000000e+00 0.000000e+00 0.000000e+00 0.000000e+00 2.551033e-01 -6.382400e-01 0.000000e+00 -6.382400e-01 6.734333e-01 0.000000e+00 0.000000e+00 0.000000e+00 0.000000e+00 6.361644e-02 -8.092165e-01 0.000000e+00 -8.092165e-01 3.849944e-01 0.000000e+00 0.000000e+00 0.000000e+00 0.000000e+00 6.990005e-01 -7.579627e-01 0.000000e+00 -7.579627e-01 -2.448446e-01 0.000000e+00 0.000000e+00 0.000000e+00 0.000000e+00 2.166565e+00 -4.217669e-01 0.000000e+00 -4.217669e-01 1.979238e-02 0.000000e+00 0.000000e+00 0.000000e+00 0.000000e+00 3.309388e+00 1.314668e-01 0.000000e+00 1.314668e-01 -1.291500e+00 0.000000e+00 0.000000e+00 0.000000e+00 0.000000e+00 -3.654142e+00 3.149923e+00 0.000000e+00 3.149923e+00 -1.560452e+00 0.000000e+00 0.000000e+00 0.000000e+00 0.000000e+00 -2.797005e+01 6.530434e+00 0.000000e+00 6.530434e+00 -7.651169e-01 0.000000e+00 0.000000e+00 0.000000e+00 0.000000e+00 -6.005297e+01 7.080646e+00 0.000000e+00 7.080646e+00 1.255966e+00 0.000000e+00 0.000000e+00 0.000000e+00 0.000000e+00 -8.283969e+01 3.533990e+00 0.000000e+00 3.533990e+00 4.698732e+00 0.000000e+00 0.000000e+00 0.000000e+00 0.000000e+00 -6.348288e+01 -7.941515e+00 0.000000e+00 -7.941515e+00 6.383050e+00 0.000000e+00 0.000000e+00 0.000000e+00 0.000000e+00 -2.955812e+01 -1.204240e+01 0.000000e+00 -1.204240e+01 1.380174e+00 0.000000e+00 0.000000e+00 0.000000e+00 0.000000e+00 -4.829004e+00 -4.533547e+00 0.000000e+00 -4.533547e+00 -3.964254e+00 0.000000e+00 0.000000e+00 0.000000e+00 0.000000e+00 -2.199921e+01 -1.070253e+01 0.000000e+00 -1.070253e+01 -3.285820e+00 0.000000e+00 0.000000e+00 0.000000e+00 0.000000e+00 -3.945343e+00 -4.347523e+00 0.000000e+00 -4.347523e+00 -4.325716e+00 0.000000e+00 0.000000e+00 0.000000e+00 0.000000e+00 -1.185720e+00 -1.169269e+01 0.000000e+00 -1.169269e+01 -2.627771e+01 0.000000e+00 0.000000e+00 0.000000e+00 0.000000e+00 2.062952e+00 3.520976e+00 0.000000e+00 3.520976e+00 -2.789721e+00 0.000000e+00 0.000000e+00 0.000000e+00 0.000000e+00 4.370958e+00 1.786222e+00 0.000000e+00 1.786222e+00 -2.782625e+00 0.000000e+00 0.000000e+00 0.000000e+00 0.000000e+00 5.448763e+00 -4.983185e-01 0.000000e+00 -4.983185e-01 -1.468327e+00 0.000000e+00 0.000000e+00 0.000000e+00 0.000000e+00 4.883166e+00 -2.008409e+00 0.000000e+00 -2.008409e+00 1.107623e+00 0.000000e+00 0.000000e+00 0.000000e+00 0.000000e+00 2.567549e+00 -1.798546e+00 0.000000e+00 -1.798546e+00 4.247349e+00 0.000000e+00 0.000000e+00 0.000000e+00 0.000000e+00 8.249075e-02 1.373419e+00 0.000000e+00 1.373419e+00 7.147655e+00 0.000000e+00 0.000000e+00 0.000000e+00 0.000000e+00 6.210726e-02 5.750642e+00 0.000000e+00 5.750642e+00 8.238057e+00 0.000000e+00 0.000000e+00 0.000000e+00 0.000000e+00 6.239682e-01 1.189683e+01 0.000000e+00 1.189683e+01 7.822592e+00 0.000000e+00 0.000000e+00 0.000000e+00 0.000000e+00 2.763272e+00 1.780029e+01 0.000000e+00 1.780029e+01 6.828213e+00 0.000000e+00 0.000000e+00 0.000000e+00 0.000000e+00 1.009667e+01 2.324148e+01 0.000000e+00 2.324148e+01 5.117550e+00 0.000000e+00 0.000000e+00 0.000000e+00 0.000000e+00 1.391762e+01 2.565633e+01 0.000000e+00 2.565633e+01 2.436409e+00 0.000000e+00 0.000000e+00 0.000000e+00 0.000000e+00 1.534149e+01 2.638199e+01 0.000000e+00 2.638199e+01 1.205014e-01 0.000000e+00 0.000000e+00 0.000000e+00 0.000000e+00 1.404577e+01 2.593062e+01 0.000000e+00 2.593062e+01 -9.686137e-01 0.000000e+00 0.000000e+00 0.000000e+00 0.000000e+00 9.560917e+00 2.520785e+01 0.000000e+00 2.520785e+01 -1.229476e+00 0.000000e+00 0.000000e+00 0.000000e+00 0.000000e+00 3.290548e+00 2.514051e+01 0.000000e+00 2.514051e+01 -1.077261e+00 0.000000e+00 0.000000e+00 0.000000e+00 0.000000e+00 -3.103218e+00 2.644353e+01 0.000000e+00 2.644353e+01 -7.715077e-01 0.000000e+00 0.000000e+00 0.000000e+00 0.000000e+00 -6.311934e+00 2.857990e+01 0.000000e+00 2.857990e+01 -2.372235e+00 0.000000e+00 0.000000e+00 0.000000e+00 0.000000e+00 -6.139009e+00 2.916068e+01 0.000000e+00 2.916068e+01 -6.032668e+00 0.000000e+00 0.000000e+00 0.000000e+00 0.000000e+00 -3.222134e+00 2.699234e+01 0.000000e+00 2.699234e+01 -1.013221e+01 0.000000e+00 0.000000e+00 0.000000e+00 0.000000e+00 5.729939e-02 2.249912e+01 0.000000e+00 2.249912e+01 -1.296222e+01 0.000000e+00 0.000000e+00 0.000000e+00 0.000000e+00 2.177849e+00 1.751890e+01 0.000000e+00 1.751890e+01 -1.463074e+01 0.000000e+00 0.000000e+00 0.000000e+00 0.000000e+00 3.221195e+00 1.153446e+01 0.000000e+00 1.153446e+01 -1.542082e+01 0.000000e+00 0.000000e+00 0.000000e+00 0.000000e+00 2.515133e+00 5.743453e+00 0.000000e+00 5.743453e+00 -1.402100e+01 0.000000e+00 0.000000e+00 0.000000e+00 0.000000e+00 3.670760e-01 1.578288e+00 0.000000e+00 1.578288e+00 -1.129621e+01 0.000000e+00 0.000000e+00 0.000000e+00 0.000000e+00 -2.516529e+00 7.430308e-01 0.000000e+00 7.430308e-01 -6.806241e+00 0.000000e+00 0.000000e+00 0.000000e+00 0.000000e+00 -3.209217e+00 1.878584e+00 0.000000e+00 1.878584e+00 -4.115810e+00 0.000000e+00 0.000000e+00 0.000000e+00 0.000000e+00 -2.135519e+00 3.187089e+00 0.000000e+00 3.187089e+00 -2.837265e+00 0.000000e+00 0.000000e+00 0.000000e+00 0.000000e+00 -3.107297e-01 3.875544e+00 0.000000e+00 3.875544e+00 -2.646436e+00 0.000000e+00 0.000000e+00 0.000000e+00 0.000000e+00 1.224262e-02 -8.671896e-01 0.000000e+00 -8.671896e-01 -7.223835e-01 0.000000e+00 0.000000e+00 0.000000e+00 0.000000e+00 -2.903636e+01 -5.964712e+00 0.000000e+00 -5.964712e+00 -1.416920e+02 0.000000e+00 0.000000e+00 0.000000e+00 0.000000e+00 -1.024307e+01 -4.407775e+00 0.000000e+00 -4.407775e+00 -1.311158e+02 0.000000e+00 0.000000e+00 0.000000e+00 0.000000e+00 -7.804383e+00 -3.093656e+00 0.000000e+00 -3.093656e+00 -1.321958e+02 0.000000e+00 0.000000e+00 0.000000e+00 0.000000e+00 -4.570668e+00 -1.264327e+00 0.000000e+00 -1.264327e+00 -1.260718e+02 0.000000e+00 0.000000e+00 0.000000e+00 0.000000e+00 -2.087046e+00 -2.553961e+00 0.000000e+00 -2.553961e+00 -1.167346e+02 0.000000e+00 0.000000e+00 0.000000e+00 0.000000e+00 9.842788e-03 -1.570767e-01 0.000000e+00 -1.570767e-01 -1.130271e+02 0.000000e+00 0.000000e+00 0.000000e+00 0.000000e+00 2.612983e+00 -2.164148e+00 0.000000e+00 -2.164148e+00 -1.035223e+02 0.000000e+00 0.000000e+00 0.000000e+00 0.000000e+00 6.417152e+00 -2.000941e+00 0.000000e+00 -2.000941e+00 -9.146792e+01 0.000000e+00 0.000000e+00 0.000000e+00 0.000000e+00 1.028238e+01 -2.123998e+00 0.000000e+00 -2.123998e+00 -8.006162e+01 0.000000e+00 0.000000e+00 0.000000e+00 0.000000e+00 9.067994e+00 1.696153e-02 0.000000e+00 1.696153e-02 -8.289780e+01 0.000000e+00 0.000000e+00 0.000000e+00 0.000000e+00 1.147380e+01 -8.405013e-02 0.000000e+00 -8.405013e-02 -7.726516e+01 0.000000e+00 0.000000e+00 0.000000e+00 0.000000e+00 1.444782e+01 -1.985428e+00 0.000000e+00 -1.985428e+00 -6.912095e+01 0.000000e+00 0.000000e+00 0.000000e+00 0.000000e+00 1.916376e+01 -1.976330e+00 0.000000e+00 -1.976330e+00 -5.952898e+01 0.000000e+00 0.000000e+00 0.000000e+00 0.000000e+00 2.400823e+01 -2.084844e+00 0.000000e+00 -2.084844e+00 -4.951671e+01 0.000000e+00 0.000000e+00 0.000000e+00 0.000000e+00 2.944541e+01 -2.215114e+00 0.000000e+00 -2.215114e+00 -4.034039e+01 0.000000e+00 0.000000e+00 0.000000e+00 0.000000e+00 2.782658e+01 -5.792965e-01 0.000000e+00 -5.792965e-01 -4.263665e+01 0.000000e+00 0.000000e+00 0.000000e+00 0.000000e+00 3.076103e+01 -7.234924e-01 0.000000e+00 -7.234924e-01 -3.812349e+01 0.000000e+00 0.000000e+00 0.000000e+00 0.000000e+00 3.536294e+01 -2.360281e+00 0.000000e+00 -2.360281e+00 -3.151203e+01 0.000000e+00 0.000000e+00 0.000000e+00 0.000000e+00 4.162469e+01 -2.441241e+00 0.000000e+00 -2.441241e+00 -2.232004e+01 0.000000e+00 0.000000e+00 0.000000e+00 0.000000e+00 4.860273e+01 -2.567079e+00 0.000000e+00 -2.567079e+00 -1.382486e+01 0.000000e+00 0.000000e+00 0.000000e+00 0.000000e+00 4.654024e+01 -1.040767e+00 0.000000e+00 -1.040767e+00 -1.599090e+01 0.000000e+00 0.000000e+00 0.000000e+00 0.000000e+00 4.999108e+01 -1.112362e+00 0.000000e+00 -1.112362e+00 -1.165792e+01 0.000000e+00 0.000000e+00 0.000000e+00 0.000000e+00 5.610037e+01 -2.775164e+00 0.000000e+00 -2.775164e+00 -4.991890e+00 0.000000e+00 0.000000e+00 0.000000e+00 0.000000e+00 6.408922e+01 -2.893767e+00 0.000000e+00 -2.893767e+00 4.718548e+00 0.000000e+00 0.000000e+00 0.000000e+00 0.000000e+00 7.306682e+01 -3.195097e+00 0.000000e+00 -3.195097e+00 1.421167e+01 0.000000e+00 0.000000e+00 0.000000e+00 0.000000e+00 7.021832e+01 -1.464856e+00 0.000000e+00 -1.464856e+00 1.164747e+01 0.000000e+00 0.000000e+00 0.000000e+00 0.000000e+00 7.488833e+01 -1.437827e+00 0.000000e+00 -1.437827e+00 1.683039e+01 0.000000e+00 0.000000e+00 0.000000e+00 0.000000e+00 8.263153e+01 -3.605639e+00 0.000000e+00 -3.605639e+00 2.548554e+01 0.000000e+00 0.000000e+00 0.000000e+00 0.000000e+00 8.458147e+01 -1.767050e+00 0.000000e+00 -1.767050e+00 2.804388e+01 0.000000e+00 0.000000e+00 0.000000e+00 0.000000e+00 9.371243e+01 -4.120799e+00 0.000000e+00 -4.120799e+00 3.669426e+01 0.000000e+00 0.000000e+00 0.000000e+00 0.000000e+00 1.060996e+02 -4.403715e+00 0.000000e+00 -4.403715e+00 5.014677e+01 0.000000e+00 0.000000e+00 0.000000e+00 0.000000e+00 1.210105e+02 -4.818373e+00 0.000000e+00 -4.818373e+00 6.501026e+01 0.000000e+00 0.000000e+00 0.000000e+00 0.000000e+00 1.160310e+02 -2.319223e+00 0.000000e+00 -2.319223e+00 6.108509e+01 0.000000e+00 0.000000e+00 0.000000e+00 0.000000e+00 1.222231e+02 -2.594591e+00 0.000000e+00 -2.594591e+00 6.874326e+01 0.000000e+00 0.000000e+00 0.000000e+00 0.000000e+00 1.385096e+02 -6.701318e+00 0.000000e+00 -6.701318e+00 8.316742e+01 0.000000e+00 0.000000e+00 0.000000e+00 0.000000e+00 1.617334e+02 -8.827223e+00 0.000000e+00 -8.827223e+00 1.054570e+02 0.000000e+00 0.000000e+00 0.000000e+00 0.000000e+00 1.950841e+02 -1.244724e+01 0.000000e+00 -1.244724e+01 1.374872e+02 0.000000e+00 0.000000e+00 0.000000e+00 0.000000e+00 2.507106e+02 -2.623076e+01 0.000000e+00 -2.623076e+01 1.878558e+02 0.000000e+00 0.000000e+00 0.000000e+00 0.000000e+00 2.096932e+02 -1.225132e+01 0.000000e+00 -1.225132e+01 1.660171e+02 0.000000e+00 0.000000e+00 0.000000e+00 0.000000e+00 2.260372e+02 -1.948442e+01 0.000000e+00 -1.948442e+01 1.947590e+02 0.000000e+00 0.000000e+00 0.000000e+00 0.000000e+00 3.690986e+02 -7.538235e+01 0.000000e+00 -7.538235e+01 3.075617e+02 0.000000e+00 0.000000e+00 0.000000e+00 0.000000e+00 7.898305e+01 1.878960e+00 0.000000e+00 1.878960e+00 -3.230861e-01 0.000000e+00 0.000000e+00 0.000000e+00 0.000000e+00 4.721310e+01 3.418428e-01 0.000000e+00 3.418428e-01 -2.814142e+00 0.000000e+00 0.000000e+00 0.000000e+00 0.000000e+00 4.746663e+01 2.362218e+00 0.000000e+00 2.362218e+00 -3.325065e-01 0.000000e+00 0.000000e+00 0.000000e+00 0.000000e+00 3.958612e+01 3.522173e+00 0.000000e+00 3.522173e+00 -4.523235e-01 0.000000e+00 0.000000e+00 0.000000e+00 0.000000e+00 2.709131e+01 4.697430e+00 0.000000e+00 4.697430e+00 -6.455875e-01 0.000000e+00 0.000000e+00 0.000000e+00 0.000000e+00 2.403446e+01 1.041482e+01 0.000000e+00 1.041482e+01 9.570833e-01 0.000000e+00 0.000000e+00 0.000000e+00 0.000000e+00 3.126046e+01 8.861353e+00 0.000000e+00 8.861353e+00 5.064443e+00 0.000000e+00 0.000000e+00 0.000000e+00 0.000000e+00 2.833348e+01 1.174184e+01 0.000000e+00 1.174184e+01 5.915059e+00 0.000000e+00 0.000000e+00 0.000000e+00 0.000000e+00 2.415241e+01 6.188517e+00 0.000000e+00 6.188517e+00 9.929759e-01 0.000000e+00 0.000000e+00 0.000000e+00 0.000000e+00 -1.117376e-01 4.403910e+00 0.000000e+00 4.403910e+00 2.426851e+00 0.000000e+00 0.000000e+00 0.000000e+00 0.000000e+00 -1.591859e+00 1.887362e+00 0.000000e+00 1.887362e+00 -1.198958e+00 0.000000e+00 0.000000e+00 0.000000e+00 0.000000e+00 -4.867182e+00 -9.017938e-01 0.000000e+00 -9.017938e-01 -8.156689e-01 0.000000e+00 0.000000e+00 0.000000e+00 0.000000e+00 -1.056904e+01 5.329355e-02 0.000000e+00 5.329355e-02 2.126235e+00 0.000000e+00 0.000000e+00 0.000000e+00 0.000000e+00 -3.186087e+00 -1.577457e+00 0.000000e+00 -1.577457e+00 -1.354549e-01 0.000000e+00 0.000000e+00 0.000000e+00 0.000000e+00 5.392613e-02 -9.024221e-01 0.000000e+00 -9.024221e-01 -2.529265e+00 0.000000e+00 0.000000e+00 0.000000e+00 0.000000e+00 7.101322e-01 -2.559474e-01 0.000000e+00 -2.559474e-01 -4.505410e+00 0.000000e+00 0.000000e+00 0.000000e+00 0.000000e+00 3.856268e-02 -7.003982e-02 0.000000e+00 -7.003982e-02 -3.390688e+00 0.000000e+00 0.000000e+00 0.000000e+00 0.000000e+00 4.241890e-01 1.181530e+00 0.000000e+00 1.181530e+00 -2.328389e+00 0.000000e+00 0.000000e+00 0.000000e+00 0.000000e+00 -4.535977e-01 9.683558e-01 0.000000e+00 9.683558e-01 2.746397e+00 0.000000e+00 0.000000e+00 0.000000e+00 0.000000e+00 -4.380737e-01 -1.761035e-01 0.000000e+00 -1.761035e-01 4.007968e+00 0.000000e+00 0.000000e+00 0.000000e+00 0.000000e+00 -2.772129e+01 6.914646e+00 0.000000e+00 6.914646e+00 3.359151e-03 0.000000e+00 0.000000e+00 0.000000e+00 0.000000e+00 -4.403784e+01 7.090384e+00 0.000000e+00 7.090384e+00 -1.620376e-01 0.000000e+00 0.000000e+00 0.000000e+00 0.000000e+00 7.545945e-01 -6.376734e-01 0.000000e+00 -6.376734e-01 2.584586e-01 0.000000e+00 0.000000e+00 0.000000e+00 0.000000e+00 5.969133e-02 4.695160e-01 0.000000e+00 4.695160e-01 3.736854e-01 0.000000e+00 0.000000e+00 0.000000e+00 0.000000e+00 1.712047e+00 1.509101e+00 0.000000e+00 1.509101e+00 -1.679662e+00 0.000000e+00 0.000000e+00 0.000000e+00 0.000000e+00 -3.488513e+00 2.122317e+00 0.000000e+00 2.122317e+00 2.539799e-01 0.000000e+00 0.000000e+00 0.000000e+00 0.000000e+00 -1.357266e+01 5.006350e+00 0.000000e+00 5.006350e+00 -1.505760e+00 0.000000e+00 0.000000e+00 0.000000e+00 0.000000e+00 -3.964259e+01 7.016955e+00 0.000000e+00 7.016955e+00 -5.495056e-01 0.000000e+00 0.000000e+00 0.000000e+00 0.000000e+00 -7.420319e+01 5.881708e+00 0.000000e+00 5.881708e+00 2.777908e+00 0.000000e+00 0.000000e+00 0.000000e+00 0.000000e+00 -5.196702e+01 -8.566882e+00 0.000000e+00 -8.566882e+00 -1.561236e+00 0.000000e+00 0.000000e+00 0.000000e+00 0.000000e+00 -8.037737e+01 -1.758547e+00 0.000000e+00 -1.758547e+00 6.356779e+00 0.000000e+00 0.000000e+00 0.000000e+00 0.000000e+00 -3.783840e+01 -9.356938e+00 0.000000e+00 -9.356938e+00 -2.563245e+00 0.000000e+00 0.000000e+00 0.000000e+00 0.000000e+00 3.891737e+00 1.891769e+00 0.000000e+00 1.891769e+00 -2.067253e+00 0.000000e+00 0.000000e+00 0.000000e+00 0.000000e+00 1.232324e+00 3.114205e+00 0.000000e+00 3.114205e+00 -2.186587e+00 0.000000e+00 0.000000e+00 0.000000e+00 0.000000e+00 5.545976e+00 -3.734929e-01 0.000000e+00 -3.734929e-01 -1.258234e+00 0.000000e+00 0.000000e+00 0.000000e+00 0.000000e+00 5.428046e+00 -2.515619e+00 0.000000e+00 -2.515619e+00 8.885050e-01 0.000000e+00 0.000000e+00 0.000000e+00 0.000000e+00 4.502520e+00 -3.538921e+00 0.000000e+00 -3.538921e+00 4.696382e+00 0.000000e+00 0.000000e+00 0.000000e+00 0.000000e+00 2.345809e+00 -1.656648e+00 0.000000e+00 -1.656648e+00 9.387666e+00 0.000000e+00 0.000000e+00 0.000000e+00 0.000000e+00 1.745790e+00 2.992415e+00 0.000000e+00 2.992415e+00 1.177140e+01 0.000000e+00 0.000000e+00 0.000000e+00 0.000000e+00 3.253315e+00 9.050914e+00 0.000000e+00 9.050914e+00 1.403926e+01 0.000000e+00 0.000000e+00 0.000000e+00 0.000000e+00 6.664958e+00 1.536233e+01 