<VTKFile type="UnstructuredGrid" version="0.1" byte_order="LittleEndian">
<UnstructuredGrid>
<Piece NumberOfPoints="1187" NumberOfCells="1187">
<Points>
 <DataArray type="Float64" NumberOfComponents="3" format="ascii"> -2.332000e-02 1.736043e-04 0.000000e+00 -2.232320e-02 1.539420e-04 0.000000e+00 -2.136317e-02 1.603477e-04 0.000000e+00 -2.040513e-02 1.642530e-04 0.000000e+00 -1.944433e-02 1.655560e-04 0.000000e+00 -1.848023e-02 1.652967e-04 0.000000e+00 -1.751903e-02 1.563843e-04 0.000000e+00 -1.656200e-02 1.559450e-04 0.000000e+00 -1.560550e-02 1.591977e-04 0.000000e+00 -1.464463e-02 1.630360e-04 0.000000e+00 -1.368757e-02 1.657183e-04 0.000000e+00 -1.272113e-02 1.614177e-04 0.000000e+00 -1.176670e-02 1.655930e-04 0.000000e+00 -1.080180e-02 1.615147e-04 0.000000e+00 -9.848193e-03 1.588433e-04 0.000000e+00 -8.875250e-03 1.613557e-04 0.000000e+00 -7.915243e-03 1.670577e-04 0.000000e+00 -6.956947e-03 1.640973e-04 0.000000e+00 -6.006427e-03 1.415340e-04 0.000000e+00 -5.035117e-03 1.576240e-04 0.000000e+00 -4.075140e-03 1.611887e-04 0.000000e+00 -3.122987e-03 1.483890e-04 0.000000e+00 -2.163810e-03 1.587610e-04 0.000000e+00 -1.195820e-03 1.744137e-04 0.000000e+00 -1.989733e-04 2.049480e-04 0.000000e+00 5.899183e-03 6.880700e-04 0.000000e+00 9.634380e-03 8.314163e-04 0.000000e+00 1.288147e-02 8.811043e-04 0.000000e+00 1.556457e-02 8.507557e-04 0.000000e+00 1.625697e-02 1.110600e-03 0.000000e+00 1.714523e-02 1.943163e-03 0.000000e+00 1.858460e-02 2.346393e-03 0.000000e+00 2.161180e-02 2.502910e-03 0.000000e+00 2.617350e-02 2.524113e-03 0.000000e+00 3.137873e-02 2.639627e-03 0.000000e+00 3.752137e-02 3.008683e-03 0.000000e+00 3.776597e-02 6.166347e-03 0.000000e+00 3.784643e-02 1.101230e-02 0.000000e+00 3.786090e-02 1.518913e-02 0.000000e+00 3.783230e-02 1.955867e-02 0.000000e+00 3.754713e-02 2.470217e-02 0.000000e+00 3.723927e-02 2.790707e-02 0.000000e+00 3.628640e-02 2.608390e-02 0.000000e+00 3.611833e-02 2.912723e-02 0.000000e+00 3.408643e-02 2.912723e-02 0.000000e+00 3.087660e-02 2.921273e-02 0.000000e+00 2.501827e-02 2.926087e-02 0.000000e+00 1.904280e-02 2.911593e-02 0.000000e+00 1.198477e-02 2.896897e-02 0.000000e+00 3.632203e-03 2.877927e-02 0.000000e+00 -6.986700e-03 2.871053e-02 0.000000e+00 -1.324537e-02 2.870067e-02 0.000000e+00 -1.980157e-02 2.827160e-02 0.000000e+00 -1.603787e-02 2.697227e-02 0.000000e+00 -2.214197e-02 2.605700e-02 0.000000e+00 -2.292793e-02 2.020170e-02 0.000000e+00 3.262367e-02 1.308173e-02 0.000000e+00 3.230910e-02 1.158190e-02 0.000000e+00 3.163363e-02 1.021931e-02 0.000000e+00 3.067930e-02 9.118857e-03 0.000000e+00 2.954320e-02 8.202103e-03 0.000000e+00 2.821697e-02 7.534673e-03 0.000000e+00 2.677307e-02 7.219233e-03 0.000000e+00 2.535023e-02 7.229130e-03 0.000000e+00 2.386283e-02 7.541663e-03 0.000000e+00 2.245127e-02 8.173457e-03 0.000000e+00 2.127943e-02 9.111423e-03 0.000000e+00 2.036480e-02 1.024937e-02 0.000000e+00 1.971930e-02 1.160353e-02 0.000000e+00 1.938457e-02 1.303760e-02 0.000000e+00 1.937697e-02 1.447027e-02 0.000000e+00 1.966720e-02 1.588373e-02 0.000000e+00 2.030720e-02 1.725297e-02 0.000000e+00 2.126137e-02 1.847507e-02 0.000000e+00 2.246777e-02 1.943387e-02 0.000000e+00 2.380200e-02 2.006090e-02 0.000000e+00 2.519913e-02 2.038260e-02 0.000000e+00 2.659083e-02 2.039017e-02 0.000000e+00 2.803923e-02 2.009040e-02 0.000000e+00 2.941547e-02 1.950650e-02 0.000000e+00 3.063903e-02 1.857997e-02 0.000000e+00 3.163043e-02 1.731373e-02 0.000000e+00 3.228907e-02 1.595550e-02 0.000000e+00 3.260633e-02 1.455787e-02 0.000000e+00 3.678733e-02 4.307610e-03 0.000000e+00 -2.364000e-02 1.736043e-04 0.000000e+00 -2.281467e-02 1.631223e-04 0.000000e+00 -2.309467e-02 3.367267e-04 0.000000e+00 -2.257787e-02 3.170643e-04 0.000000e+00 -2.184373e-02 1.550423e-04 0.000000e+00 -2.160690e-02 3.153900e-04 0.000000e+00 -2.087983e-02 1.651600e-04 0.000000e+00 -1.992243e-02 1.635233e-04 0.000000e+00 -1.896147e-02 1.715653e-04 0.000000e+00 -1.920580e-02 3.371213e-04 0.000000e+00 -1.872170e-02 3.368620e-04 0.000000e+00 -1.799830e-02 1.583367e-04 0.000000e+00 -1.704340e-02 1.550750e-04 0.000000e+00 -1.607933e-02 1.567140e-04 0.000000e+00 -1.512317e-02 1.617350e-04 0.000000e+00 -1.536867e-02 3.209327e-04 0.000000e+00 -1.488780e-02 3.247710e-04 0.000000e+00 -1.417147e-02 1.657430e-04 0.000000e+00 -1.320137e-02 1.615120e-04 0.000000e+00 -1.224380e-02 1.628883e-04 0.000000e+00 -1.248493e-02 3.243060e-04 0.000000e+00 -1.201050e-02 3.284813e-04 0.000000e+00 -1.128930e-02 1.641377e-04 0.000000e+00 -1.032373e-02 1.591453e-04 0.000000e+00 -9.361707e-03 1.591803e-04 0.000000e+00 -9.609900e-03 3.180237e-04 0.000000e+00 -9.116957e-03 3.205360e-04 0.000000e+00 -8.396620e-03 1.641813e-04 0.000000e+00 -8.151863e-03 3.312390e-04 0.000000e+00 -7.440907e-03 1.688460e-04 0.000000e+00 -6.475497e-03 1.541883e-04 0.000000e+00 -5.522450e-03 1.401560e-04 0.000000e+00 -5.768877e-03 2.816900e-04 0.000000e+00 -5.277567e-03 2.977800e-04 0.000000e+00 -4.557890e-03 1.618643e-04 0.000000e+00 -3.599783e-03 1.586310e-04 0.000000e+00 -2.639110e-03 1.465977e-04 0.000000e+00 -1.678670e-03 1.661163e-04 0.000000e+00 -1.922480e-03 3.248773e-04 0.000000e+00 -1.434490e-03 3.405300e-04 0.000000e+00 -7.058257e-04 1.853213e-04 0.000000e+00 4.950083e-03 1.130889e-03 0.000000e+00 3.849230e-03 5.918352e-04 0.000000e+00 7.838260e-03 7.557517e-04 0.000000e+00 1.133543e-02 8.656797e-04 0.000000e+00 1.427630e-02 8.817397e-04 0.000000e+00 1.640513e-02 1.806197e-03 0.000000e+00 1.733643e-02 2.723213e-03 0.000000e+00 1.805710e-02 2.874010e-03 0.000000e+00 1.993840e-02 2.425463e-03 0.000000e+00 2.375830e-02 2.577830e-03 0.000000e+00 2.505957e-02 3.101943e-03 0.000000e+00 3.005377e-02 3.205280e-03 0.000000e+00 2.871977e-02 2.565653e-03 0.000000e+00 3.409720e-02 2.803037e-03 0.000000e+00 3.707943e-02 7.335193e-03 0.000000e+00 3.781347e-02 8.701033e-03 0.000000e+00 3.715990e-02 9.769497e-03 0.000000e+00 3.788740e-02 1.314723e-02 0.000000e+00 3.774823e-02 1.729790e-02 0.000000e+00 3.770757e-02 2.198053e-02 0.000000e+00 1.732697e-02 2.813503e-02 0.000000e+00 1.557927e-02 2.901910e-02 0.000000e+00 3.269900e-02 2.833997e-02 0.000000e+00 2.935370e-02 2.845227e-02 0.000000e+00 2.781170e-02 2.923953e-02 0.000000e+00 2.639500e-02 2.850040e-02 0.000000e+00 2.223157e-02 2.922417e-02 0.000000e+00 1.381527e-02 2.798807e-02 0.000000e+00 8.031137e-03 2.889270e-02 0.000000e+00 -4.123090e-03 2.728437e-02 0.000000e+00 -1.198417e-03 2.857383e-02 0.000000e+00 -1.002719e-02 2.741120e-02 0.000000e+00 3.294570e-02 1.223310e-02 0.000000e+00 3.308240e-02 1.382250e-02 0.000000e+00 3.240927e-02 1.066846e-02 0.000000e+00 3.151247e-02 9.382083e-03 0.000000e+00 3.036437e-02 8.311407e-03 0.000000e+00 2.906530e-02 7.459887e-03 0.000000e+00 2.756433e-02 6.933003e-03 0.000000e+00 2.604700e-02 6.802027e-03 0.000000e+00 2.451277e-02 6.968320e-03 0.000000e+00 2.295897e-02 7.446843e-03 0.000000e+00 2.158077e-02 8.277360e-03 0.000000e+00 2.046297e-02 9.380470e-03 0.000000e+00 1.962013e-02 1.072123e-02 0.000000e+00 1.909593e-02 1.221973e-02 0.000000e+00 1.891300e-02 1.375080e-02 0.000000e+00 1.906483e-02 1.527593e-02 0.000000e+00 1.955993e-02 1.677317e-02 0.000000e+00 2.042313e-02 1.817600e-02 0.000000e+00 2.157573e-02 1.932917e-02 0.000000e+00 2.294480e-02 2.016120e-02 0.000000e+00 2.440160e-02 2.064950e-02 0.000000e+00 2.589963e-02 2.081680e-02 0.000000e+00 2.739473e-02 2.065897e-02 0.000000e+00 2.894647e-02 2.018490e-02 0.000000e+00 3.032357e-02 1.941143e-02 0.000000e+00 3.151980e-02 1.822977e-02 0.000000e+00 3.238047e-02 1.681127e-02 0.000000e+00 3.289473e-02 1.536320e-02 0.000000e+00 -1.138429e-03 8.096280e-03 0.000000e+00 -2.208693e-02 3.089843e-04 0.000000e+00 -2.112300e-02 3.255077e-04 0.000000e+00 -2.016757e-02 3.277763e-04 0.000000e+00 -1.775733e-02 3.147210e-04 0.000000e+00 -1.823853e-02 3.236333e-04 0.000000e+00 -1.728243e-02 3.114593e-04 0.000000e+00 -1.632133e-02 3.126590e-04 0.000000e+00 -1.393903e-02 3.314613e-04 0.000000e+00 -1.441610e-02 3.287790e-04 0.000000e+00 -1.344893e-02 3.272303e-04 0.000000e+00 -1.105110e-02 3.256523e-04 0.000000e+00 -1.153600e-02 3.297307e-04 0.000000e+00 -1.056553e-02 3.206600e-04 0.000000e+00 -8.631870e-03 3.255370e-04 0.000000e+00 -7.676150e-03 3.359037e-04 0.000000e+00 -6.712443e-03 3.182857e-04 0.000000e+00 -4.313030e-03 3.230530e-04 0.000000e+00 -4.793007e-03 3.194883e-04 0.000000e+00 -3.834923e-03 3.198197e-04 0.000000e+00 -2.882097e-03 2.949867e-04 0.000000e+00 -4.247990e-04 3.902693e-04 0.000000e+00 -9.416457e-04 3.597350e-04 0.000000e+00 6.837617e-03 1.229541e-03 0.000000e+00 1.043452e-02 1.369913e-03 0.000000e+00 1.359147e-02 1.341531e-03 0.000000e+00 1.928013e-02 2.771857e-03 0.000000e+00 2.269583e-02 3.080740e-03 0.000000e+00 2.752970e-02 3.089767e-03 0.000000e+00 3.266823e-02 3.442663e-03 0.000000e+00 3.723383e-02 1.202530e-02 0.000000e+00 3.710913e-02 1.624160e-02 0.000000e+00 3.703987e-02 2.079103e-02 0.000000e+00 2.364283e-02 2.848503e-02 0.000000e+00 1.001834e-02 2.786167e-02 0.000000e+00 1.148280e-03 2.735310e-02 0.000000e+00 -2.187153e-02 1.781887e-02 0.000000e+00 -1.584483e-02 3.159117e-04 0.000000e+00 -2.402920e-03 3.053587e-04 0.000000e+00 1.209650e-02 1.370374e-03 0.000000e+00 1.496447e-02 1.270496e-03 0.000000e+00 3.675470e-02 2.326907e-02 0.000000e+00 -1.968677e-02 3.290793e-04 0.000000e+00 -2.064497e-02 3.294130e-04 0.000000e+00 -1.680540e-02 3.110200e-04 0.000000e+00 -1.296250e-02 3.229297e-04 0.000000e+00 -1.009193e-02 3.179887e-04 0.000000e+00 -6.241923e-03 2.957223e-04 0.000000e+00 -7.197853e-03 3.329433e-04 0.000000e+00 -3.362770e-03 3.070200e-04 0.000000e+00 8.672683e-03 1.313877e-03 0.000000e+00 2.076100e-02 2.928373e-03 0.000000e+00 3.708053e-02 1.843863e-02 0.000000e+00 3.724830e-02 1.411830e-02 0.000000e+00 2.070107e-02 2.834010e-02 0.000000e+00 5.806120e-03 2.767197e-02 0.000000e+00 -2.113147e-02 6.741743e-04 0.000000e+00 -2.017700e-02 6.675697e-04 0.000000e+00 -1.681017e-02 6.413607e-04 0.000000e+00 -1.776050e-02 6.320880e-04 0.000000e+00 -2.065687e-02 6.803663e-04 0.000000e+00 -2.042647e-02 8.549997e-04 0.00000
[...]
<PointData Scalars="" Vectors="IST_PrincipalStressTensor IST_PrincStressVector1 " Tensors="IST_StressTensor IST_StrainTensor " >
  <DataArray type="Float64" Name="IST_StressTensor" NumberOfComponents="9" format="ascii">-2.484676e+00 -9.862417e-01 0.000000e+00 -9.862417e-01 -1.974270e+01 0.000000e+00 0.000000e+00 0.000000e+00 0.000000e+00 -8.013327e-01 -4.475220e-01 0.000000e+00 -4.475220e-01 -1.764431e+01 0.000000e+00 0.000000e+00 0.000000e+00 0.000000e+00 7.725761e-02 -3.267816e-01 0.000000e+00 -3.267816e-01 -1.573379e+01 0.000000e+00 0.000000e+00 0.000000e+00 0.000000e+00 6.536963e-01 -2.912329e-01 0.000000e+00 -2.912329e-01 -1.392429e+01 0.000000e+00 0.000000e+00 0.000000e+00 0.000000e+00 1.196254e+00 -2.888695e-01 0.000000e+00 -2.888695e-01 -1.226526e+01 0.000000e+00 0.000000e+00 0.000000e+00 0.000000e+00 1.761619e+00 -2.952062e-01 0.000000e+00 -2.952062e-01 -1.064703e+01 0.000000e+00 0.000000e+00 0.000000e+00 0.000000e+00 2.392611e+00 -2.788145e-01 0.000000e+00 -2.788145e-01 -9.173793e+00 0.000000e+00 0.000000e+00 0.000000e+00 0.000000e+00 3.070446e+00 -2.895068e-01 0.000000e+00 -2.895068e-01 -7.769547e+00 0.000000e+00 0.000000e+00 0.000000e+00 0.000000e+00 3.818433e+00 -3.035229e-01 0.000000e+00 -3.035229e-01 -6.430409e+00 0.000000e+00 0.000000e+00 0.000000e+00 0.000000e+00 4.625254e+00 -3.229280e-01 0.000000e+00 -3.229280e-01 -5.142945e+00 0.000000e+00 0.000000e+00 0.000000e+00 0.000000e+00 5.482568e+00 -3.481889e-01 0.000000e+00 -3.481889e-01 -3.823548e+00 0.000000e+00 0.000000e+00 0.000000e+00 0.000000e+00 6.437801e+00 -3.537254e-01 0.000000e+00 -3.537254e-01 -2.585151e+00 0.000000e+00 0.000000e+00 0.000000e+00 0.000000e+00 7.467787e+00 -3.854057e-01 0.000000e+00 -3.854057e-01 -1.352399e+00 0.000000e+00 0.000000e+00 0.000000e+00 0.000000e+00 8.565639e+00 -4.088365e-01 0.000000e+00 -4.088365e-01 -9.909428e-03 0.000000e+00 0.000000e+00 0.000000e+00 0.000000e+00 9.790788e+00 -4.293047e-01 0.000000e+00 -4.293047e-01 1.316101e+00 0.000000e+00 0.000000e+00 0.000000e+00 0.000000e+00 1.110013e+01 -4.827317e-01 0.000000e+00 -4.827317e-01 2.827806e+00 0.000000e+00 0.000000e+00 0.000000e+00 0.000000e+00 1.255853e+01 -5.512588e-01 0.000000e+00 -5.512588e-01 4.455383e+00 0.000000e+00 0.000000e+00 0.000000e+00 0.000000e+00 1.425377e+01 -6.193747e-01 0.000000e+00 -6.193747e-01 6.127637e+00 0.000000e+00 0.000000e+00 0.000000e+00 0.000000e+00 1.616625e+01 -6.332863e-01 0.000000e+00 -6.332863e-01 8.220242e+00 0.000000e+00 0.000000e+00 0.000000e+00 0.000000e+00 1.844011e+01 -8.426163e-01 0.000000e+00 -8.426163e-01 1.055498e+01 0.000000e+00 0.000000e+00 0.000000e+00 0.000000e+00 2.130535e+01 -1.091634e+00 0.000000e+00 -1.091634e+00 1.338424e+01 0.000000e+00 0.000000e+00 0.000000e+00 0.000000e+00 2.522629e+01 -1.438293e+00 0.000000e+00 -1.438293e+00 1.719999e+01 0.000000e+00 0.000000e+00 0.000000e+00 0.000000e+00 3.121069e+01 -2.498853e+00 0.000000e+00 -2.498853e+00 2.262459e+01 0.000000e+00 0.000000e+00 0.000000e+00 0.000000e+00 4.263511e+01 -6.074566e+00 0.000000e+00 -6.074566e+00 3.300863e+01 0.000000e+00 0.000000e+00 0.000000e+00 0.000000e+00 6.476729e+01 -1.935007e+01 0.000000e+00 -1.935007e+01 6.649256e+01 0.000000e+00 0.000000e+00 0.000000e+00 0.000000e+00 7.189358e+00 3.712115e-01 0.000000e+00 3.712115e-01 2.448649e-01 0.000000e+00 0.000000e+00 0.000000e+00 0.000000e+00 6.302082e+00 4.255188e-01 0.000000e+00 4.255188e-01 -1.042466e-01 0.000000e+00 0.000000e+00 0.000000e+00 0.000000e+00 4.864442e+00 5.729769e-01 0.000000e+00 5.729769e-01 -6.469074e-02 0.000000e+00 0.000000e+00 0.000000e+00 0.000000e+00 2.509153e+00 7.668423e-01 0.000000e+00 7.668423e-01 1.247594e-01 0.000000e+00 0.000000e+00 0.000000e+00 0.000000e+00 3.068270e+00 8.960114e-01 0.000000e+00 8.960114e-01 3.488422e-01 0.000000e+00 0.000000e+00 0.000000e+00 0.000000e+00 5.367669e+00 1.997371e+00 0.000000e+00 1.997371e+00 9.712882e-01 0.000000e+00 0.000000e+00 0.000000e+00 0.000000e+00 6.286528e+00 1.395024e+00 0.000000e+00 1.395024e+00 7.143373e-01 0.000000e+00 0.000000e+00 0.000000e+00 0.000000e+00 1.536144e+00 7.432699e-01 0.000000e+00 7.432699e-01 1.277142e-01 0.000000e+00 0.000000e+00 0.000000e+00 0.000000e+00 -1.193376e+00 3.982670e-01 0.000000e+00 3.982670e-01 4.412668e-01 0.000000e+00 0.000000e+00 0.000000e+00 0.000000e+00 -1.072128e+00 -2.303510e-01 0.000000e+00 -2.303510e-01 1.414862e-01 0.000000e+00 0.000000e+00 0.000000e+00 0.000000e+00 -9.627120e-02 -9.922731e-02 0.000000e+00 -9.922731e-02 -1.022742e-01 0.000000e+00 0.000000e+00 0.000000e+00 0.000000e+00 -2.692778e-02 -1.084525e-01 0.000000e+00 -1.084525e-01 -4.039001e-01 0.000000e+00 0.000000e+00 0.000000e+00 0.000000e+00 1.056444e-01 9.761049e-02 0.000000e+00 9.761049e-02 -6.073248e-01 0.000000e+00 0.000000e+00 0.000000e+00 0.000000e+00 -7.761868e-03 1.900211e-01 0.000000e+00 1.900211e-01 6.747446e-02 0.000000e+00 0.000000e+00 0.000000e+00 0.000000e+00 -8.062647e-02 6.916696e-02 0.000000e+00 6.916696e-02 6.139436e-01 0.000000e+00 0.000000e+00 0.000000e+00 0.000000e+00 -4.183406e-02 -1.067928e-01 0.000000e+00 -1.067928e-01 3.566756e-01 0.000000e+00 0.000000e+00 0.000000e+00 0.000000e+00 3.644333e-02 -9.117714e-02 0.000000e+00 -9.117714e-02 9.620476e-02 0.000000e+00 0.000000e+00 0.000000e+00 0.000000e+00 9.088063e-03 -1.156024e-01 0.000000e+00 -1.156024e-01 5.499920e-02 0.000000e+00 0.000000e+00 0.000000e+00 0.000000e+00 9.985721e-02 -1.082804e-01 0.000000e+00 -1.082804e-01 -3.497780e-02 0.000000e+00 0.000000e+00 0.000000e+00 0.000000e+00 3.095093e-01 -6.025241e-02 0.000000e+00 -6.025241e-02 2.827484e-03 0.000000e+00 0.000000e+00 0.000000e+00 0.000000e+00 4.727697e-01 1.878098e-02 0.000000e+00 1.878098e-02 -1.845000e-01 0.000000e+00 0.000000e+00 0.000000e+00 0.000000e+00 -5.220203e-01 4.499889e-01 0.000000e+00 4.499889e-01 -2.229217e-01 0.000000e+00 0.000000e+00 0.000000e+00 0.000000e+00 -3.995721e+00 9.329191e-01 0.000000e+00 9.329191e-01 -1.093024e-01 0.000000e+00 0.000000e+00 0.000000e+00 0.000000e+00 -8.578995e+00 1.011521e+00 0.000000e+00 1.011521e+00 1.794237e-01 0.000000e+00 0.000000e+00 0.000000e+00 0.000000e+00 -1.183424e+01 5.048557e-01 0.000000e+00 5.048557e-01 6.712474e-01 0.000000e+00 0.000000e+00 0.000000e+00 0.000000e+00 -9.068982e+00 -1.134502e+00 0.000000e+00 -1.134502e+00 9.118643e-01 0.000000e+00 0.000000e+00 0.000000e+00 0.000000e+00 -4.222589e+00 -1.720343e+00 0.000000e+00 -1.720343e+00 1.971678e-01 0.000000e+00 0.000000e+00 0.000000e+00 0.000000e+00 -6.898577e-01 -6.476496e-01 0.000000e+00 -6.476496e-01 -5.663220e-01 0.000000e+00 0.000000e+00 0.000000e+00 0.000000e+00 -3.142744e+00 -1.528932e+00 0.000000e+00 -1.528932e+00 -4.694029e-01 0.000000e+00 0.000000e+00 0.000000e+00 0.000000e+00 -5.636205e-01 -6.210748e-01 0.000000e+00 -6.210748e-01 -6.179595e-01 0.000000e+00 0.000000e+00 0.000000e+00 0.000000e+00 -1.693885e-01 -1.670385e+00 0.000000e+00 -1.670385e+00 -3.753959e+00 0.000000e+00 0.000000e+00 0.000000e+00 0.000000e+00 2.947074e-01 5.029965e-01 0.000000e+00 5.029965e-01 -3.985316e-01 0.000000e+00 0.000000e+00 0.000000e+00 0.000000e+00 6.244226e-01 2.551746e-01 0.000000e+00 2.551746e-01 -3.975179e-01 0.000000e+00 0.000000e+00 0.000000e+00 0.000000e+00 7.783947e-01 -7.118835e-02 0.000000e+00 -7.118835e-02 -2.097610e-01 0.000000e+00 0.000000e+00 0.000000e+00 0.000000e+00 6.975952e-01 -2.869156e-01 0.000000e+00 -2.869156e-01 1.582319e-01 0.000000e+00 0.000000e+00 0.000000e+00 0.000000e+00 3.667928e-01 -2.569352e-01 0.000000e+00 -2.569352e-01 6.067641e-01 0.000000e+00 0.000000e+00 0.000000e+00 0.000000e+00 1.178439e-02 1.962027e-01 0.000000e+00 1.962027e-01 1.021094e+00 0.000000e+00 0.000000e+00 0.000000e+00 0.000000e+00 8.872465e-03 8.215203e-01 0.000000e+00 8.215203e-01 1.176865e+00 0.000000e+00 0.000000e+00 0.000000e+00 0.000000e+00 8.913832e-02 1.699548e+00 0.000000e+00 1.699548e+00 1.117513e+00 0.000000e+00 0.000000e+00 0.000000e+00 0.000000e+00 3.947531e-01 2.542899e+00 0.000000e+00 2.542899e+00 9.754591e-01 0.000000e+00 0.000000e+00 0.000000e+00 0.000000e+00 1.442382e+00 3.320211e+00 0.000000e+00 3.320211e+00 7.310786e-01 0.000000e+00 0.000000e+00 0.000000e+00 0.000000e+00 1.988231e+00 3.665190e+00 0.000000e+00 3.665190e+00 3.480584e-01 0.000000e+00 0.000000e+00 0.000000e+00 0.000000e+00 2.191642e+00 3.768856e+00 0.000000e+00 3.768856e+00 1.721448e-02 0.000000e+00 0.000000e+00 0.000000e+00 0.000000e+00 2.006539e+00 3.704375e+00 0.000000e+00 3.704375e+00 -1.383734e-01 0.000000e+00 0.000000e+00 0.000000e+00 0.000000e+00 1.365845e+00 3.601121e+00 0.000000e+00 3.601121e+00 -1.756394e-01 0.000000e+00 0.000000e+00 0.000000e+00 0.000000e+00 4.700783e-01 3.591501e+00 0.000000e+00 3.591501e+00 -1.538945e-01 0.000000e+00 0.000000e+00 0.000000e+00 0.000000e+00 -4.433169e-01 3.777647e+00 0.000000e+00 3.777647e+00 -1.102154e-01 0.000000e+00 0.000000e+00 0.000000e+00 0.000000e+00 -9.017049e-01 4.082844e+00 0.000000e+00 4.082844e+00 -3.388907e-01 0.000000e+00 0.000000e+00 0.000000e+00 0.000000e+00 -8.770012e-01 4.165812e+00 0.000000e+00 4.165812e+00 -8.618097e-01 0.000000e+00 0.000000e+00 0.000000e+00 0.000000e+00 -4.603048e-01 3.856048e+00 0.000000e+00 3.856048e+00 -1.447458e+00 0.000000e+00 0.000000e+00 0.000000e+00 0.000000e+00 8.185628e-03 3.214160e+00 0.000000e+00 3.214160e+00 -1.851746e+00 0.000000e+00 0.000000e+00 0.000000e+00 0.000000e+00 3.111212e-01 2.502701e+00 0.000000e+00 2.502701e+00 -2.090105e+00 0.000000e+00 0.000000e+00 0.000000e+00 0.000000e+00 4.601707e-01 1.647781e+00 0.000000e+00 1.647781e+00 -2.202974e+00 0.000000e+00 0.000000e+00 0.000000e+00 0.000000e+00 3.593047e-01 8.204933e-01 0.000000e+00 8.204933e-01 -2.003000e+00 0.000000e+00 0.000000e+00 0.000000e+00 0.000000e+00 5.243943e-02 2.254697e-01 0.000000e+00 2.254697e-01 -1.613744e+00 0.000000e+00 0.000000e+00 0.000000e+00 0.000000e+00 -3.595041e-01 1.061473e-01 0.000000e+00 1.061473e-01 -9.723202e-01 0.000000e+00 0.000000e+00 0.000000e+00 0.000000e+00 -4.584595e-01 2.683692e-01 0.000000e+00 2.683692e-01 -5.879728e-01 0.000000e+00 0.000000e+00 0.000000e+00 0.000000e+00 -3.050741e-01 4.552984e-01 0.000000e+00 4.552984e-01 -4.053235e-01 0.000000e+00 0.000000e+00 0.000000e+00 0.000000e+00 -4.438996e-02 5.536492e-01 0.000000e+00 5.536492e-01 -3.780622e-01 0.000000e+00 0.000000e+00 0.000000e+00 0.000000e+00 1.748946e-03 -1.238842e-01 0.000000e+00 -1.238842e-01 -1.031976e-01 0.000000e+00 0.000000e+00 0.000000e+00 0.000000e+00 -4.148052e+00 -8.521018e-01 0.000000e+00 -8.521018e-01 -2.024171e+01 0.000000e+00 0.000000e+00 0.000000e+00 0.000000e+00 -1.463295e+00 -6.296822e-01 0.000000e+00 -6.296822e-01 -1.873083e+01 0.000000e+00 0.000000e+00 0.000000e+00 0.000000e+00 -1.114912e+00 -4.419508e-01 0.000000e+00 -4.419508e-01 -1.888512e+01 0.000000e+00 0.000000e+00 0.000000e+00 0.000000e+00 -6.529525e-01 -1.806182e-01 0.000000e+00 -1.806182e-01 -1.801026e+01 0.000000e+00 0.000000e+00 0.000000e+00 0.000000e+00 -2.981494e-01 -3.648516e-01 0.000000e+00 -3.648516e-01 -1.667638e+01 0.000000e+00 0.000000e+00 0.000000e+00 0.000000e+00 1.406113e-03 -2.243952e-02 0.000000e+00 -2.243952e-02 -1.614673e+01 0.000000e+00 0.000000e+00 0.000000e+00 0.000000e+00 3.732832e-01 -3.091639e-01 0.000000e+00 -3.091639e-01 -1.478889e+01 0.000000e+00 0.000000e+00 0.000000e+00 0.000000e+00 9.167361e-01 -2.858488e-01 0.000000e+00 -2.858488e-01 -1.306685e+01 0.000000e+00 0.000000e+00 0.000000e+00 0.000000e+00 1.468911e+00 -3.034283e-01 0.000000e+00 -3.034283e-01 -1.143737e+01 0.000000e+00 0.000000e+00 0.000000e+00 0.000000e+00 1.295428e+00 2.423076e-03 0.000000e+00 2.423076e-03 -1.184254e+01 0.000000e+00 0.000000e+00 0.000000e+00 0.000000e+00 1.639114e+00 -1.200716e-02 0.000000e+00 -1.200716e-02 -1.103788e+01 0.000000e+00 0.000000e+00 0.000000e+00 0.000000e+00 2.063974e+00 -2.836326e-01 0.000000e+00 -2.836326e-01 -9.874422e+00 0.000000e+00 0.000000e+00 0.000000e+00 0.000000e+00 2.737680e+00 -2.823328e-01 0.000000e+00 -2.823328e-01 -8.504140e+00 0.000000e+00 0.000000e+00 0.000000e+00 0.000000e+00 3.429747e+00 -2.978348e-01 0.000000e+00 -2.978348e-01 -7.073816e+00 0.000000e+00 0.000000e+00 0.000000e+00 0.000000e+00 4.206488e+00 -3.164449e-01 0.000000e+00 -3.164449e-01 -5.762913e+00 0.000000e+00 0.000000e+00 0.000000e+00 0.000000e+00 3.975226e+00 -8.275664e-02 0.000000e+00 -8.275664e-02 -6.090950e+00 0.000000e+00 0.000000e+00 0.000000e+00 0.000000e+00 4.394432e+00 -1.033561e-01 0.000000e+00 -1.033561e-01 -5.446212e+00 0.000000e+00 0.000000e+00 0.000000e+00 0.000000e+00 5.051849e+00 -3.371830e-01 0.000000e+00 -3.371830e-01 -4.501718e+00 0.000000e+00 0.000000e+00 0.000000e+00 0.000000e+00 5.946385e+00 -3.487487e-01 0.000000e+00 -3.487487e-01 -3.188577e+00 0.000000e+00 0.000000e+00 0.000000e+00 0.000000e+00 6.943247e+00 -3.667256e-01 0.000000e+00 -3.667256e-01 -1.974980e+00 0.000000e+00 0.000000e+00 0.000000e+00 0.000000e+00 6.648605e+00 -1.486810e-01 0.000000e+00 -1.486810e-01 -2.284414e+00 0.000000e+00 0.000000e+00 0.000000e+00 0.000000e+00 7.141584e+00 -1.589089e-01 0.000000e+00 -1.589089e-01 -1.665417e+00 0.000000e+00 0.000000e+00 0.000000e+00 0.000000e+00 8.014339e+00 -3.964519e-01 0.000000e+00 -3.964519e-01 -7.131271e-01 0.000000e+00 0.000000e+00 0.000000e+00 0.000000e+00 9.155603e+00 -4.133953e-01 0.000000e+00 -4.133953e-01 6.740783e-01 0.000000e+00 0.000000e+00 0.000000e+00 0.000000e+00 1.043812e+01 -4.564424e-01 0.000000e+00 -4.564424e-01 2.030239e+00 0.000000e+00 0.000000e+00 0.000000e+00 0.000000e+00 1.003119e+01 -2.092652e-01 0.000000e+00 -2.092652e-01 1.663924e+00 0.000000e+00 0.000000e+00 0.000000e+00 0.000000e+00 1.069833e+01 -2.054038e-01 0.000000e+00 -2.054038e-01 2.404342e+00 0.000000e+00 0.000000e+00 0.000000e+00 0.000000e+00 1.180450e+01 -5.150913e-01 0.000000e+00 -5.150913e-01 3.640791e+00 0.000000e+00 0.000000e+00 0.000000e+00 0.000000e+00 1.208307e+01 -2.524357e-01 0.000000e+00 -2.524357e-01 4.006269e+00 0.000000e+00 0.000000e+00 0.000000e+00 0.000000e+00 1.338749e+01 -5.886856e-01 0.000000e+00 -5.886856e-01 5.242037e+00 0.000000e+00 0.000000e+00 0.000000e+00 0.000000e+00 1.515708e+01 -6.291021e-01 0.000000e+00 -6.291021e-01 7.163824e+00 0.000000e+00 0.000000e+00 0.000000e+00 0.000000e+00 1.728722e+01 -6.883390e-01 0.000000e+00 -6.883390e-01 9.287180e+00 0.000000e+00 0.000000e+00 0.000000e+00 0.000000e+00 1.657585e+01 -3.313176e-01 0.000000e+00 -3.313176e-01 8.726441e+00 0.000000e+00 0.000000e+00 0.000000e+00 0.000000e+00 1.746044e+01 -3.706559e-01 0.000000e+00 -3.706559e-01 9.820465e+00 0.000000e+00 0.000000e+00 0.000000e+00 0.000000e+00 1.978709e+01 -9.573311e-01 0.000000e+00 -9.573311e-01 1.188106e+01 0.000000e+00 0.000000e+00 0.000000e+00 0.000000e+00 2.310476e+01 -1.261032e+00 0.000000e+00 -1.261032e+00 1.506529e+01 0.000000e+00 0.000000e+00 0.000000e+00 0.000000e+00 2.786916e+01 -1.778178e+00 0.000000e+00 -1.778178e+00 1.964103e+01 0.000000e+00 0.000000e+00 0.000000e+00 0.000000e+00 3.581579e+01 -3.747252e+00 0.000000e+00 -3.747252e+00 2.683655e+01 0.000000e+00 0.000000e+00 0.000000e+00 0.000000e+00 2.995617e+01 -1.750189e+00 0.000000e+00 -1.750189e+00 2.371672e+01 0.000000e+00 0.000000e+00 0.000000e+00 0.000000e+00 3.229103e+01 -2.783488e+00 0.000000e+00 -2.783488e+00 2.782271e+01 0.000000e+00 0.000000e+00 0.000000e+00 0.000000e+00 5.272838e+01 -1.076891e+01 0.000000e+00 -1.076891e+01 4.393739e+01 0.000000e+00 0.000000e+00 0.000000e+00 0.000000e+00 1.128329e+01 2.684229e-01 0.000000e+00 2.684229e-01 -4.615516e-02 0.000000e+00 0.000000e+00 0.000000e+00 0.000000e+00 6.744728e+00 4.883469e-02 0.000000e+00 4.883469e-02 -4.020203e-01 0.000000e+00 0.000000e+00 0.000000e+00 0.000000e+00 6.780946e+00 3.374598e-01 0.000000e+00 3.374598e-01 -4.750093e-02 0.000000e+00 0.000000e+00 0.000000e+00 0.000000e+00 5.655160e+00 5.031676e-01 0.000000e+00 5.031676e-01 -6.461764e-02 0.000000e+00 0.000000e+00 0.000000e+00 0.000000e+00 3.870187e+00 6.710614e-01 0.000000e+00 6.710614e-01 -9.222678e-02 0.000000e+00 0.000000e+00 0.000000e+00 0.000000e+00 3.433494e+00 1.487832e+00 0.000000e+00 1.487832e+00 1.367262e-01 0.000000e+00 0.000000e+00 0.000000e+00 0.000000e+00 4.465780e+00 1.265908e+00 0.000000e+00 1.265908e+00 7.234918e-01 0.000000e+00 0.000000e+00 0.000000e+00 0.000000e+00 4.047640e+00 1.677406e+00 0.000000e+00 1.677406e+00 8.450085e-01 0.000000e+00 0.000000e+00 0.000000e+00 0.000000e+00 3.450345e+00 8.840739e-01 0.000000e+00 8.840739e-01 1.418537e-01 0.000000e+00 0.000000e+00 0.000000e+00 0.000000e+00 -1.596251e-02 6.291300e-01 0.000000e+00 6.291300e-01 3.466930e-01 0.000000e+00 0.000000e+00 0.000000e+00 0.000000e+00 -2.274085e-01 2.696232e-01 0.000000e+00 2.696232e-01 -1.712797e-01 0.000000e+00 0.000000e+00 0.000000e+00 0.000000e+00 -6.953117e-01 -1.288277e-01 0.000000e+00 -1.288277e-01 -1.165241e-01 0.000000e+00 0.000000e+00 0.000000e+00 0.000000e+00 -1.509864e+00 7.613365e-03 0.000000e+00 7.613365e-03 3.037479e-01 0.000000e+00 0.000000e+00 0.000000e+00 0.000000e+00 -4.551553e-01 -2.253510e-01 0.000000e+00 -2.253510e-01 -1.935069e-02 0.000000e+00 0.000000e+00 0.000000e+00 0.000000e+00 7.703733e-03 -1.289174e-01 0.000000e+00 -1.289174e-01 -3.613235e-01 0.000000e+00 0.000000e+00 0.000000e+00 0.000000e+00 1.014475e-01 -3.656391e-02 0.000000e+00 -3.656391e-02 -6.436300e-01 0.000000e+00 0.000000e+00 0.000000e+00 0.000000e+00 5.508954e-03 -1.000569e-02 0.000000e+00 -1.000569e-02 -4.843840e-01 0.000000e+00 0.000000e+00 0.000000e+00 0.000000e+00 6.059843e-02 1.687900e-01 0.000000e+00 1.687900e-01 -3.326271e-01 0.000000e+00 0.000000e+00 0.000000e+00 0.000000e+00 -6.479967e-02 1.383365e-01 0.000000e+00 1.383365e-01 3.923425e-01 0.000000e+00 0.000000e+00 0.000000e+00 0.000000e+00 -6.258195e-02 -2.515764e-02 0.000000e+00 -2.515764e-02 5.725669e-01 0.000000e+00 0.000000e+00 0.000000e+00 0.000000e+00 -3.960184e+00 9.878065e-01 0.000000e+00 9.878065e-01 4.798787e-04 0.000000e+00 0.000000e+00 0.000000e+00 0.000000e+00 -6.291120e+00 1.012912e+00 0.000000e+00 1.012912e+00 -2.314823e-02 0.000000e+00 0.000000e+00 0.000000e+00 0.000000e+00 1.077992e-01 -9.109621e-02 0.000000e+00 -9.109621e-02 3.692266e-02 0.000000e+00 0.000000e+00 0.000000e+00 0.000000e+00 8.527333e-03 6.707371e-02 0.000000e+00 6.707371e-02 5.338363e-02 0.000000e+00 0.000000e+00 0.000000e+00 0.000000e+00 2.445781e-01 2.155858e-01 0.000000e+00 2.155858e-01 -2.399517e-01 0.000000e+00 0.000000e+00 0.000000e+00 0.000000e+00 -4.983590e-01 3.031881e-01 0.000000e+00 3.031881e-01 3.628284e-02 0.000000e+00 0.000000e+00 0.000000e+00 0.000000e+00 -1.938951e+00 7.151929e-01 0.000000e+00 7.151929e-01 -2.151086e-01 0.000000e+00 0.000000e+00 0.000000e+00 0.000000e+00 -5.663227e+00 1.002422e+00 0.000000e+00 1.002422e+00 -7.850080e-02 0.000000e+00 0.000000e+00 0.000000e+00 0.000000e+00 -1.060046e+01 8.402439e-01 0.000000e+00 8.402439e-01 3.968440e-01 0.000000e+00 0.000000e+00 0.000000e+00 0.000000e+00 -7.423860e+00 -1.223840e+00 0.000000e+00 -1.223840e+00 -2.230337e-01 0.000000e+00 0.000000e+00 0.000000e+00 0.000000e+00 -1.148248e+01 -2.512211e-01 0.000000e+00 -2.512211e-01 9.081113e-01 0.000000e+00 0.000000e+00 0.000000e+00 0.000000e+00 -5.405485e+00 -1.336705e+00 0.000000e+00 -1.336705e+00 -3.661778e-01 0.000000e+00 0.000000e+00 0.000000e+00 0.000000e+00 5.559625e-01 2.702527e-01 0.000000e+00 2.702527e-01 -2.953218e-01 0.000000e+00 0.000000e+00 0.000000e+00 0.000000e+00 1.760463e-01 4.448864e-01 0.000000e+00 4.448864e-01 -3.123696e-01 0.000000e+00 0.000000e+00 0.000000e+00 0.000000e+00 7.922823e-01 -5.335612e-02 0.000000e+00 -5.335612e-02 -1.797477e-01 0.000000e+00 0.000000e+00 0.000000e+00 0.000000e+00 7.754351e-01 -3.593742e-01 0.000000e+00 -3.593742e-01 1.269293e-01 0.000000e+00 0.000000e+00 0.000000e+00 0.000000e+00 6.432172e-01 -5.055602e-01 0.000000e+00 -5.055602e-01 6.709117e-01 0.000000e+00 0.000000e+00 0.000000e+00 0.000000e+00 3.351155e-01 -2.366640e-01 0.000000e+00 -2.366640e-01 1.341095e+00 0.000000e+00 0.000000e+00 0.000000e+00 0.000000e+00 2.493986e-01 4.274879e-01 0.000000e+00 4.274879e-01 1.681629e+00 0.000000e+00 0.000000e+00 0.000000e+00 0.000000e+00 4.647593e-01 1.292988e+00 0.000000e+00 1.292988e+00 2.005609e+00 0.000000e+00 0.000000e+00 0.000000e+00 0.000000e+00 9.521368e-01 2.194618e+00 