<!-- TimeStep 10 Computed 2021-08-30 at 9:26:12 -->
<VTKFile type="UnstructuredGrid" version="0.1" byte_order="LittleEndian">
<UnstructuredGrid>
<Piece NumberOfPoints="658" NumberOfCells="1187">
<Points>
 <DataArray type="Float64" NumberOfComponents="3" format="ascii"> 3.225000e-02 1.380000e-02 0.000000e+00 3.850000e-02 2.000000e-03 0.000000e+00 1.790000e-02 2.000000e-03 0.000000e+00 3.850000e-02 3.000000e-02 0.000000e+00 1.610000e-02 5.000000e-04 0.000000e+00 -2.400000e-02 3.000000e-02 0.000000e+00 0.000000e+00 0.000000e+00 0.000000e+00 -2.400000e-02 0.000000e+00 0.000000e+00 3.209060e-02 1.520260e-02 0.000000e+00 3.166140e-02 1.644790e-02 0.000000e+00 3.086510e-02 1.772340e-02 0.000000e+00 2.972250e-02 1.882050e-02 0.000000e+00 2.860520e-02 1.948120e-02 0.000000e+00 2.719700e-02 1.993430e-02 0.000000e+00 2.590380e-02 2.004930e-02 0.000000e+00 2.457020e-02 1.988430e-02 0.000000e+00 2.332460e-02 1.944840e-02 0.000000e+00 2.208010e-02 1.866800e-02 0.000000e+00 2.105550e-02 1.762290e-02 0.000000e+00 2.030070e-02 1.636520e-02 0.000000e+00 1.988720e-02 1.510250e-02 0.000000e+00 1.975010e-02 1.376650e-02 0.000000e+00 1.990830e-02 1.240220e-02 0.000000e+00 2.036540e-02 1.109550e-02 0.000000e+00 2.111820e-02 9.897330e-03 0.000000e+00 2.206020e-02 8.948140e-03 0.000000e+00 2.327140e-02 8.177090e-03 0.000000e+00 2.473380e-02 7.679600e-03 0.000000e+00 2.609570e-02 7.550730e-03 0.000000e+00 2.739940e-02 7.708680e-03 0.000000e+00 2.878200e-02 8.203300e-03 0.000000e+00 2.990320e-02 8.918690e-03 0.000000e+00 3.088920e-02 9.906670e-03 0.000000e+00 3.160900e-02 1.104290e-02 0.000000e+00 3.210220e-02 1.244870e-02 0.000000e+00 -2.400000e-02 2.335620e-02 0.000000e+00 -2.400000e-02 1.701100e-02 0.000000e+00 -2.400000e-02 1.072240e-02 0.000000e+00 -2.400000e-02 4.857510e-03 0.000000e+00 2.555380e-03 7.935950e-05 0.000000e+00 4.875910e-03 1.514260e-04 0.000000e+00 6.963700e-03 2.162640e-04 0.000000e+00 8.859870e-03 2.751510e-04 0.000000e+00 1.057630e-02 3.284580e-04 0.000000e+00 1.216970e-02 3.779410e-04 0.000000e+00 1.361520e-02 4.228320e-04 0.000000e+00 1.491400e-02 4.631670e-04 0.000000e+00 3.513720e-02 3.000000e-02 0.000000e+00 3.240430e-02 3.000000e-02 0.000000e+00 2.925060e-02 3.000000e-02 0.000000e+00 2.634890e-02 3.000000e-02 0.000000e+00 2.370540e-02 3.000000e-02 0.000000e+00 2.076670e-02 3.000000e-02 0.000000e+00 1.724780e-02 3.000000e-02 0.000000e+00 1.387080e-02 3.000000e-02 0.000000e+00 1.012770e-02 3.000000e-02 0.000000e+00 5.994200e-03 3.000000e-02 0.000000e+00 1.449760e-03 3.000000e-02 0.000000e+00 -3.587440e-03 3.000000e-02 0.000000e+00 -1.004840e-02 3.000000e-02 0.000000e+00 -1.697880e-02 3.000000e-02 0.000000e+00 1.699120e-02 1.242700e-03 0.000000e+00 3.850000e-02 5.026050e-03 0.000000e+00 3.850000e-02 7.576210e-03 0.000000e+00 3.850000e-02 9.994300e-03 0.000000e+00 3.850000e-02 1.226100e-02 0.000000e+00 3.850000e-02 1.414740e-02 0.000000e+00 3.850000e-02 1.624580e-02 0.000000e+00 3.850000e-02 1.834310e-02 0.000000e+00 3.850000e-02 2.066490e-02 0.000000e+00 3.850000e-02 2.323650e-02 0.000000e+00 3.850000e-02 2.633950e-02 0.000000e+00 1.914730e-02 2.000000e-03 0.000000e+00 2.068130e-02 2.000000e-03 0.000000e+00 2.253900e-02 2.000000e-03 0.000000e+00 2.480250e-02 2.000000e-03 0.000000e+00 2.727520e-02 2.000000e-03 0.000000e+00 3.001300e-02 2.000000e-03 0.000000e+00 3.284600e-02 2.000000e-03 0.000000e+00 3.556410e-02 2.000000e-03 0.000000e+00 -2.352000e-02 0.000000e+00 0.000000e+00 -2.304000e-02 0.000000e+00 0.000000e+00 -2.256000e-02 0.000000e+00 0.000000e+00 -2.208000e-02 0.000000e+00 0.000000e+00 -2.160000e-02 0.000000e+00 0.000000e+00 -2.112000e-02 0.000000e+00 0.000000e+00 -2.064000e-02 0.000000e+00 0.000000e+00 -2.016000e-02 0.000000e+00 0.000000e+00 -1.968000e-02 0.000000e+00 0.000000e+00 -1.920000e-02 0.000000e+00 0.000000e+00 -1.872000e-02 0.000000e+00 0.000000e+00 -1.824000e-02 0.000000e+00 0.000000e+00 -1.776000e-02 0.000000e+00 0.000000e+00 -1.728000e-02 0.000000e+00 0.000000e+00 -1.680000e-02 0.000000e+00 0.000000e+00 -1.632000e-02 0.000000e+00 0.000000e+00 -1.584000e-02 0.000000e+00 0.000000e+00 -1.536000e-02 0.000000e+00 0.000000e+00 -1.488000e-02 0.000000e+00 0.000000e+00 -1.440000e-02 0.000000e+00 0.000000e+00 -1.392000e-02 0.000000e+00 0.000000e+00 -1.344000e-02 0.000000e+00 0.000000e+00 -1.296000e-02 0.000000e+00 0.000000e+00 -1.248000e-02 0.000000e+00 0.000000e+00 -1.200000e-02 0.000000e+00 0.000000e+00 -1.152000e-02 0.000000e+00 0.000000e+00 -1.104000e-02 0.000000e+00 0.000000e+00 -1.056000e-02 0.000000e+00 0.000000e+00 -1.008000e-02 0.000000e+00 0.000000e+00 -9.600000e-03 0.000000e+00 0.000000e+00 -9.120000e-03 0.000000e+00 0.000000e+00 -8.640000e-03 0.000000e+00 0.000000e+00 -8.160000e-03 0.000000e+00 0.000000e+00 -7.680000e-03 0.000000e+00 0.000000e+00 -7.200000e-03 0.000000e+00 0.000000e+00 -6.720000e-03 0.000000e+00 0.000000e+00 -6.240000e-03 0.000000e+00 0.000000e+00 -5.760000e-03 0.000000e+00 0.000000e+00 -5.280000e-03 0.000000e+00 0.000000e+00 -4.800000e-03 0.000000e+00 0.000000e+00 -4.320000e-03 0.000000e+00 0.000000e+00 -3.840000e-03 0.000000e+00 0.000000e+00 -3.360000e-03 0.000000e+00 0.000000e+00 -2.880000e-03 0.000000e+00 0.000000e+00 -2.400000e-03 0.000000e+00 0.000000e+00 -1.920000e-03 0.000000e+00 0.000000e+00 -1.440000e-03 0.000000e+00 0.000000e+00 -9.600000e-04 0.000000e+00 0.000000e+00 -4.800000e-04 0.000000e+00 0.000000e+00 -2.340000e-02 5.208130e-04 0.000000e+00 -2.232960e-02 4.618260e-04 0.000000e+00 -2.136950e-02 4.810430e-04 0.000000e+00 -2.041540e-02 4.927590e-04 0.000000e+00 -1.945300e-02 4.966680e-04 0.000000e+00 -1.848070e-02 4.958900e-04 0.000000e+00 -1.751710e-02 4.691530e-04 0.000000e+00 -1.656600e-02 4.678350e-04 0.000000e+00 -1.561650e-02 4.775930e-04 0.000000e+00 -1.465390e-02 4.891080e-04 0.000000e+00 -1.370270e-02 4.971550e-04 0.000000e+00 -1.272340e-02 4.842530e-04 0.000000e+00 -1.178010e-02 4.967790e-04 0.000000e+00 -1.080540e-02 4.845440e-04 0.000000e+00 -9.864580e-03 4.765300e-04 0.000000e+00 -8.865750e-03 4.840670e-04 0.000000e+00 -7.905730e-03 5.011730e-04 0.000000e+00 -6.950840e-03 4.922920e-04 0.000000e+00 -6.019280e-03 4.246020e-04 0.000000e+00 -5.025350e-03 4.728720e-04 0.000000e+00 -4.065420e-03 4.835660e-04 0.000000e+00 -3.128960e-03 4.451670e-04 0.000000e+00 -2.171430e-03 4.762830e-04 0.000000e+00 -1.187460e-03 5.232410e-04 0.000000e+00 -1.169200e-04 6.148440e-04 0.000000e+00 5.857940e-03 1.696520e-03 0.000000e+00 9.466970e-03 1.890640e-03 0.000000e+00 1.285950e-02 1.842540e-03 0.000000e+00 1.567970e-02 1.589100e-03 0.000000e+00 1.654450e-02 2.586790e-03 0.000000e+00 1.870650e-02 3.039180e-03 0.000000e+00 2.161510e-02 3.508730e-03 0.000000e+00 2.644280e-02 3.572340e-03 0.000000e+00 3.127720e-02 3.918880e-03 0.000000e+00 3.629790e-02 5.896780e-03 0.000000e+00 3.653930e-02 1.078160e-02 0.000000e+00 3.658270e-02 1.517420e-02 0.000000e+00 3.649690e-02 1.966800e-02 0.000000e+00 3.564140e-02 2.453050e-02 0.000000e+00 3.471780e-02 2.738170e-02 0.000000e+00 3.097490e-02 2.763820e-02 0.000000e+00 2.500050e-02 2.778260e-02 0.000000e+00 1.911390e-02 2.734780e-02 0.000000e+00 1.195580e-02 2.690690e-02 0.000000e+00 3.452650e-03 2.633780e-02 0.000000e+00 -7.324260e-03 2.613160e-02 0.000000e+00 -1.270890e-02 2.610200e-02 0.000000e+00 -1.842590e-02 2.481480e-02 0.000000e+00 -2.078380e-02 2.023790e-02 0.000000e+00 3.351880e-02 1.299650e-02 0.000000e+00 3.321610e-02 1.125410e-02 0.000000e+00 3.240270e-02 9.708370e-03 0.000000e+00 3.124550e-02 8.531210e-03 0.000000e+00 2.994440e-02 7.484320e-03 0.000000e+00 2.846950e-02 6.692040e-03 0.000000e+00 2.682410e-02 6.398290e-03 0.000000e+00 2.522120e-02 6.457060e-03 0.000000e+00 2.358330e-02 6.768300e-03 0.000000e+00 2.202220e-02 7.395140e-03 0.000000e+00 2.065990e-02 8.488800e-03 0.000000e+00 1.961080e-02 9.755280e-03 0.000000e+00 1.888420e-02 1.131290e-02 0.000000e+00 1.849530e-02 1.294410e-02 0.000000e+00 1.849360e-02 1.454180e-02 0.000000e+00 1.881370e-02 1.618350e-02 0.000000e+00 1.956540e-02 1.777080e-02 0.000000e+00 2.064850e-02 1.913430e-02 0.000000e+00 2.199860e-02 2.018520e-02 0.000000e+00 2.351120e-02 2.085000e-02 0.000000e+00 2.512340e-02 2.121420e-02 0.000000e+00 2.667170e-02 2.118690e-02 0.000000e+00 2.831550e-02 2.085570e-02 0.000000e+00 2.991870e-02 2.021780e-02 0.000000e+00 3.132950e-02 1.919600e-02 0.000000e+00 3.236480e-02 1.776990e-02 0.000000e+00 3.311520e-02 1.621600e-02 0.000000e+00 3.347840e-02 1.467100e-02 0.000000e+00 -2.284400e-02 4.893670e-04 0.000000e+00 -2.185120e-02 4.651270e-04 0.000000e+00 -2.087950e-02 4.954800e-04 0.000000e+00 -1.992730e-02 4.905700e-04 0.000000e+00 -1.896440e-02 5.146960e-04 0.000000e+00 -1.799490e-02 4.750100e-04 0.000000e+00 -1.705020e-02 4.652250e-04 0.000000e+00 -1.607800e-02 4.701420e-04 0.000000e+00 -1.512950e-02 4.852050e-04 0.000000e+00 -1.419440e-02 4.972290e-04 0.000000e+00 -1.320410e-02 4.845360e-04 0.000000e+00 -1.225140e-02 4.886650e-04 0.000000e+00 -1.130790e-02 4.924130e-04 0.000000e+00 -1.033120e-02 4.774360e-04 0.000000e+00 -9.365120e-03 4.775410e-04 0.000000e+00 -8.389860e-03 4.925440e-04 0.000000e+00 -7.442720e-03 5.065380e-04 0.000000e+00 -6.466490e-03 4.625650e-04 0.000000e+00 -5.527350e-03 4.204680e-04 0.000000e+00 -4.553670e-03 4.855930e-04 0.000000e+00 -3.599350e-03 4.758930e-04 0.000000e+00 -2.637330e-03 4.397930e-04 0.000000e+00 -1.676010e-03 4.983490e-04 0.000000e+00 -6.774770e-04 5.559640e-04 0.000000e+00 4.116400e-03 1.544720e-03 0.000000e+00 7.691210e-03 1.775840e-03 0.000000e+00 1.126030e-02 1.890640e-03 0.000000e+00 1.429970e-02 1.759220e-03 0.000000e+00 1.756480e-02 3.582850e-03 0.000000e+00 1.998660e-02 3.276390e-03 0.000000e+00 2.393340e-02 3.733490e-03 0.000000e+00 2.887110e-02 3.696960e-03 0.000000e+00 3.388150e-02 4.409110e-03 0.000000e+00 3.644040e-02 8.532590e-03 0.000000e+00 3.666220e-02 1.303330e-02 0.000000e+00 3.624470e-02 1.730480e-02 0.000000e+00 3.612270e-02 2.204020e-02 0.000000e+00 1.561920e-02 2.705730e-02 0.000000e+00 2.783560e-02 2.771860e-02 0.000000e+00 2.222260e-02 2.767250e-02 0.000000e+00 7.971510e-03 2.667810e-02
[...]
<PointData Scalars="" Vectors="DisplacementVector " Tensors="IST_StressTensor IST_StrainTensor " >
 <DataArray type="Float64" Name="DisplacementVector" NumberOfComponents="3" format="ascii"> -1.038081e-05 8.065135e-05 0.000000e+00 1.335956e-05 9.334442e-05 0.000000e+00 1.322758e-05 4.890683e-05 0.000000e+00 -4.327160e-05 9.336579e-05 0.000000e+00 1.607992e-05 4.485863e-05 0.000000e+00 -2.945892e-05 -1.290709e-05 0.000000e+00 1.153742e-05 0.000000e+00 0.000000e+00 0.000000e+00 0.000000e+00 0.000000e+00 -1.309787e-05 8.031086e-05 0.000000e+00 -1.552350e-05 7.943517e-05 0.000000e+00 -1.803370e-05 7.781360e-05 0.000000e+00 -2.023269e-05 7.546579e-05 0.000000e+00 -2.160124e-05 7.312068e-05 0.000000e+00 -2.257739e-05 7.009725e-05 0.000000e+00 -2.287038e-05 6.725232e-05 0.000000e+00 -2.259706e-05 6.425341e-05 0.000000e+00 -2.177822e-05 6.141610e-05 0.000000e+00 -2.027651e-05 5.853261e-05 0.000000e+00 -1.824427e-05 5.611806e-05 0.000000e+00 -1.578505e-05 5.431800e-05 0.000000e+00 -1.329616e-05 5.333005e-05 0.000000e+00 -1.064543e-05 5.301974e-05 0.000000e+00 -7.917679e-06 5.343263e-05 0.000000e+00 -5.274266e-06 5.457344e-05 0.000000e+00 -2.814701e-06 5.642346e-05 0.000000e+00 -8.368264e-07 5.870570e-05 0.000000e+00 7.809374e-07 6.158548e-05 0.000000e+00 1.799617e-06 6.495723e-05 0.000000e+00 2.051128e-06 6.801890e-05 0.000000e+00 1.704547e-06 7.084809e-05 0.000000e+00 6.602908e-07 7.377009e-05 0.000000e+00 -8.048922e-07 7.606345e-05 0.000000e+00 -2.782304e-06 7.803063e-05 0.000000e+00 -5.022333e-06 7.943883e-05 0.000000e+00 -7.763021e-06 8.038466e-05 0.000000e+00 -2.173894e-05 -1.277929e-05 0.000000e+00 -1.365470e-05 -1.177226e-05 0.000000e+00 -6.188462e-06 -8.972906e-06 0.000000e+00 -1.411119e-06 -4.574323e-06 0.000000e+00 1.369250e-05 1.261270e-05 0.000000e+00 1.418568e-05 1.872253e-05 0.000000e+00 1.466591e-05 2.384203e-05 0.000000e+00 1.508205e-05 2.828958e-05 0.000000e+00 1.542732e-05 3.225028e-05 0.000000e+00 1.570385e-05 3.590926e-05 0.000000e+00 1.590627e-05 3.922309e-05 0.000000e+00 1.603400e-05 4.219154e-05 0.000000e+00 -4.328750e-05 8.640921e-05 0.000000e+00 -4.332366e-05 8.073734e-05 0.000000e+00 -4.339504e-05 7.410378e-05 0.000000e+00 -4.343440e-05 6.786302e-05 0.000000e+00 -4.338284e-05 6.204384e-05 0.000000e+00 -4.314677e-05 5.546514e-05 0.000000e+00 -4.254912e-05 4.758324e-05 0.000000e+00 -4.163962e-05 4.017547e-05 0.000000e+00 -4.025475e-05 3.232392e-05 0.000000e+00 -3.835579e-05 2.432528e-05 0.000000e+00 -3.601171e-05 1.654847e-05 0.000000e+00 -3.347406e-05 9.297794e-06 0.000000e+00 -3.088713e-05 1.770960e-06 0.000000e+00 -2.961538e-05 -5.209432e-06 0.000000e+00 1.459180e-05 4.685091e-05 0.000000e+00 7.223700e-06 9.333490e-05 0.000000e+00 2.059380e-06 9.329164e-05 0.000000e+00 -2.800633e-06 9.322179e-05 0.000000e+00 -7.303555e-06 9.315971e-05 0.000000e+00 -1.102330e-05 9.313135e-05 0.000000e+00 -1.516177e-05 9.313763e-05 0.000000e+00 -1.933239e-05 9.317464e-05 0.000000e+00 -2.400821e-05 9.323814e-05 0.000000e+00 -2.926394e-05 9.330331e-05 0.000000e+00 -3.567829e-05 9.335241e-05 0.000000e+00 1.355217e-05 5.187512e-05 0.000000e+00 1.377621e-05 5.549137e-05 0.000000e+00 1.389546e-05 5.982109e-05 0.000000e+00 1.388383e-05 6.497238e-05 0.000000e+00 1.374333e-05 7.041202e-05 0.000000e+00 1.355548e-05 7.617443e-05 0.000000e+00 1.342016e-05 8.194890e-05 0.000000e+00 1.336781e-05 8.742382e-05 0.000000e+00 3.958894e-08 0.000000e+00 0.000000e+00 1.103163e-07 0.000000e+00 0.000000e+00 1.958102e-07 0.000000e+00 0.000000e+00 2.882163e-07 0.000000e+00 0.000000e+00 3.850000e-07 0.000000e+00 0.000000e+00 4.836892e-07 0.000000e+00 0.000000e+00 5.826368e-07 0.000000e+00 0.000000e+00 6.820170e-07 0.000000e+00 0.000000e+00 7.815167e-07 0.000000e+00 0.000000e+00 8.818196e-07 0.000000e+00 0.000000e+00 9.826221e-07 0.000000e+00 0.000000e+00 1.084568e-06 0.000000e+00 0.000000e+00 1.187967e-06 0.000000e+00 0.000000e+00 1.293801e-06 0.000000e+00 0.000000e+00 1.402602e-06 0.000000e+00 0.000000e+00 1.513715e-06 0.000000e+00 0.000000e+00 1.627925e-06 0.000000e+00 0.000000e+00 1.746161e-06 0.000000e+00 0.000000e+00 1.868259e-06 0.000000e+00 0.000000e+00 1.995147e-06 0.000000e+00 0.000000e+00 2.126853e-06 0.000000e+00 0.000000e+00 2.263234e-06 0.000000e+00 0.000000e+00 2.405237e-06 0.000000e+00 0.000000e+00 2.553626e-06 0.000000e+00 0.000000e+00 2.708647e-06 0.000000e+00 0.000000e+00 2.870616e-06 0.000000e+00 0.000000e+00 3.039884e-06 0.000000e+00 0.000000e+00 3.216152e-06 0.000000e+00 0.000000e+00 3.400336e-06 0.000000e+00 0.000000e+00 3.593625e-06 0.000000e+00 0.000000e+00 3.795822e-06 0.000000e+00 0.000000e+00 4.006716e-06 0.000000e+00 0.000000e+00 4.227083e-06 0.000000e+00 0.000000e+00 4.457933e-06 0.000000e+00 0.000000e+00 4.700982e-06 0.000000e+00 0.000000e+00 4.956386e-06 0.000000e+00 0.000000e+00 5.223978e-06 0.000000e+00 0.000000e+00 5.505810e-06 0.000000e+00 0.000000e+00 5.804118e-06 0.000000e+00 0.000000e+00 6.118318e-06 0.000000e+00 0.000000e+00 6.452044e-06 0.000000e+00 0.000000e+00 6.807725e-06 0.000000e+00 0.000000e+00 7.190049e-06 0.000000e+00 0.000000e+00 7.602841e-06 0.000000e+00 0.000000e+00 8.054937e-06 0.000000e+00 0.000000e+00 8.557359e-06 0.000000e+00 0.000000e+00 9.128521e-06 0.000000e+00 0.000000e+00 9.801876e-06 0.000000e+00 0.000000e+00 1.061542e-05 0.000000e+00 0.000000e+00 3.577513e-11 -4.240303e-07 0.000000e+00 2.171354e-07 -3.444677e-07 0.000000e+00 4.148752e-07 -3.248476e-07 0.000000e+00 6.131476e-07 -2.981980e-07 0.000000e+00 8.129647e-07 -2.687145e-07 0.000000e+00 1.017135e-06 -2.375068e-07 0.000000e+00 1.226948e-06 -1.988855e-07 0.000000e+00 1.441678e-06 -1.742488e-07 0.000000e+00 1.666826e-06 -1.550664e-07 0.000000e+00 1.910429e-06 -1.368913e-07 0.000000e+00 2.169305e-06 -1.165115e-07 0.000000e+00 2.459294e-06 -9.373391e-08 0.000000e+00 2.761515e-06 -7.649123e-08 0.000000e+00 3.103961e-06 -5.356844e-08 0.000000e+00 3.464287e-06 -3.310798e-08 0.000000e+00 3.881492e-06 -1.041917e-08 0.000000e+00 4.318586e-06 1.477368e-08 0.000000e+00 4.799582e-06 3.906350e-08 0.000000e+00 5.323611e-06 6.133135e-08 0.000000e+00 5.926409e-06 1.017947e-07 0.000000e+00 6.581868e-06 1.449172e-07 0.000000e+00 7.317394e-06 1.837669e-07 0.000000e+00 8.161566e-06 2.706931e-07 0.000000e+00 9.128619e-06 4.533830e-07 0.000000e+00 9.987139e-06 1.240115e-06 0.000000e+00 1.075639e-05 2.100647e-05 0.000000e+00 1.159136e-05 2.955397e-05 0.000000e+00 1.258115e-05 3.739638e-05 0.000000e+00 1.367836e-05 4.388379e-05 0.000000e+00 1.172243e-05 4.579336e-05 0.000000e+00 1.112599e-05 5.077394e-05 0.000000e+00 1.044473e-05 5.764623e-05 0.000000e+00 1.040145e-05 6.863470e-05 0.000000e+00 9.534605e-06 7.878932e-05 0.000000e+00 5.451494e-06 8.888728e-05 0.000000e+00 -4.388834e-06 8.928387e-05 0.000000e+00 -1.304606e-05 8.931252e-05 0.000000e+00 -2.197784e-05 8.916144e-05 0.000000e+00 -3.192059e-05 8.744866e-05 0.000000e+00 -3.784145e-05 8.554889e-05 0.000000e+00 -3.839309e-05 7.776374e-05 0.000000e+00 -3.863809e-05 6.490107e-05 0.000000e+00 -3.720116e-05 5.163924e-05 0.000000e+00 -3.479163e-05 3.579360e-05 0.000000e+00 -3.098379e-05 1.931340e-05 0.000000e+00 -2.698226e-05 4.342268e-06 0.000000e+00 -2.572557e-05 -1.153294e-06 0.000000e+00 -2.352416e-05 -6.716095e-06 0.000000e+00 -1.763412e-05 -8.785349e-06 0.000000e+00 -8.800151e-06 8.319966e-05 0.000000e+00 -5.385220e-06 8.263034e-05 0.000000e+00 -2.332262e-06 8.104077e-05 0.000000e+00 1.881144e-08 7.874528e-05 0.000000e+00 2.150953e-06 7.611663e-05 0.000000e+00 3.801528e-06 7.304862e-05 0.000000e+00 4.428802e-06 6.953718e-05 0.000000e+00 4.316738e-06 6.599795e-05 0.000000e+00 3.648871e-06 6.225675e-05 0.000000e+00 2.291707e-06 5.859519e-05 0.000000e+00 -2.953352e-08 5.533302e-05 0.000000e+00 -2.672721e-06 5.278872e-05 0.000000e+00 -5.837394e-06 5.100420e-05 0.000000e+00 -9.083226e-06 5.003688e-05 0.000000e+00 -1.221325e-05 5.001125e-05 0.000000e+00 -1.540181e-05 5.076944e-05 0.000000e+00 -1.847933e-05 5.255674e-05 0.000000e+00 -2.113319e-05 5.510951e-05 0.000000e+00 -2.319324e-05 5.825576e-05 0.000000e+00 -2.450337e-05 6.173496e-05 0.000000e+00 -2.520993e-05 6.537937e-05 0.000000e+00 -2.511708e-05 6.882065e-05 0.000000e+00 -2.439857e-05 7.238278e-05 0.000000e+00 -2.306817e-05 7.577191e-05 0.000000e+00 -2.099113e-05 7.869677e-05 0.000000e+00 -1.814369e-05 8.082029e-05 0.000000e+00 -1.508260e-05 8.234774e-05 0.000000e+00 -1.206415e-05 8.309272e-05 0.000000e+00 1.108901e-07 -3.836325e-07 0.000000e+00 3.154401e-07 -3.306442e-07 0.000000e+00 5.161969e-07 -3.164180e-07 0.000000e+00 7.146281e-07 -2.805051e-07 0.000000e+00 9.138946e-07 -2.620107e-07 0.000000e+00 1.122354e-06 -2.136245e-07 0.000000e+00 1.331254e-06 -1.859327e-07 0.000000e+00 1.555693e-06 -1.632616e-07 0.000000e+00 1.787685e-06 -1.460784e-07 0.000000e+00 2.032879e-06 -1.282270e-07 0.000000e+00 2.314193e-06 -1.032579e-07 0.000000e+00 2.607486e-06 -8.498487e-08 0.000000e+00 2.923659e-06 -6.578839e-08 0.000000e+00 3.281954e-06 -4.240865e-08 0.000000e+00 3.668278e-06 -2.253714e-08 0.000000e+00 4.093284e-06 2.099086e-09 0.000000e+00 4.544853e-06 2.661039e-08 0.000000e+00 5.065288e-06 5.187400e-08 0.000000e+00 5.618146e-06 7.390053e-08 0.000000e+00 6.237782e-06 1.237208e-07 0.000000e+00 6.932535e-06 1.658935e-07 0.000000e+00 7.744263e-06 2.126137e-07 0.000000e+00 8.639602e-06 3.436858e-07 0.000000e+00 9.613582e-06 6.699893e-07 0.000000e+00 1.029683e-05 1.657550e-05 0.000000e+00 1.127405e-05 2.541131e-05 0.000000e+00 1.209029e-05 3.370467e-05 0.000000e+00 1.306396e-05 4.071690e-05 0.000000e+00 9.772237e-06 4.809893e-05 0.000000e+00 1.079153e-05 5.380482e-05 0.000000e+00 1.006473e-05 6.302059e-05 0.000000e+00 1.006358e-05 7.382604e-05 0.000000e+00 8.487182e-06 8.404675e-05 0.000000e+00 1.111954e-07 8.913291e-05 0.000000e+00 -8.839065e-06 8.948963e-05 0.000000e+00 -1.725002e-05 8.863674e-05 0.000000e+00 -2.679512e-05 8.842103e-05 0.000000e+00 -3.598755e-05 4.377565e-05 0.000000e+00 -3.856238e-05 7.109114e-05 0.000000e+00 -3.823877e-05 5.868782e-05 0.000000e+00 -3.314707e-05 2.764228e-05 0.000000e+00 -2.826870e-05 1.156542e-05 0.000000e+00 -1.238089e-05 -7.987597e-06 0.000000e+00 4.022724e-07 -6.896037e-07 0.000000e+00 6.084171e-07 -6.011310e-07 0.000000e+00 1.333679e-06 -3.825581e-07 0.000000e+00 1.126550e-06 -4.165721e-07 0.000000e+00 5.014626e-07 -6.577804e-07 0.000000e+00 1.236794e-06 -3.852120e-07 0.000000e+00 1.016711e-06 -4.789069e-07 0.000000e+00 2.323127e-06 -2.011320e-07 0.000000e+00 2.029075e-06 -2.630247e-07 0.000000e+00 7.615851e-06 5.112920e-07 0.000000e+00 2.176557e-06 -2.272410e-07 0.000000e+00 1.900399e-06 -2.818665e-07 0.000000e+00 2.929622e-06 -1.286965e-07 0.000000e+00 3.300662e-06 -7.530309e-08 0.000000e+00 3.119670e-06 -1.010220e-07 0.000000e+00 2.758582e-06 -1.521113e-07 0.000000e+00 3.896314e-06 -6.846246e-09 0.000000e+00 5.116131e-06 1.281653e-07 0.000000e+00 4.335808e-06 4.593361e-08 0.000000e+00 4.836719e-06 1.065331e-07 0.000000e+00 6.937209e-06 3.826906e-07 0.000000e+00 6.209888e-06 2.973042e-07 0.000000e+00 4.581677e-06 7.492452e-08 0.000000e+00 6.573311e-06 3.446758e-07 0.000000e+00 5.895009e-06 2.435415e-07 0.000000e+00 7.330705e-06 3.932401e-07 0.000000e+00 7.927585e-06 2.711997e-05 0.000000e+00 8.714754e-06 1.944670e-06 0.000000e+00 9.002826e-06 3.549051e-05 0.000000e+00 7.608067e-06 2.292808e-05 0.000000e+00 7.070882e-06 1.869952e-05 0.000000e+00 8.585442e-06 1.247773e-06 0.000000e+00 8.367850e-06 3.136429e-05 0.000000e+00 9.432640e-06 1.248042e-05 0.000000e+00 7.259788e-06 5.473675e-05 0.000000e+00 1.056964e-05 4.269761e-05 0.000000e+00 8.159902e-06 5.106654e-05 0.000000e+00 -2.828371e-05 8.322455e-05 0.000000e+00 6.192895e-06 5.912753e-05 0.000000e+00 -2.043918e-05 8.583980e-05 0.000000e+00 -6.703276e-06 8.600544e-05 0.000000e+00 5.972884e-06 7.621125e-05 0.000000e+00 5.458597e-06 8.097183e-05 0.000000e+00 2.097977e-07 -6.728453e-07 0.000000e+00 3.022478e-06 8.518373e-05 0.000000e+00 -2.110523e-06 8.502418e-05 0.000000e+00 -3.315037e-05 5.598099e-05 0.000000e+00 -2.400048e-05 8.467493e-05 0.000000e+00 -3.424241e-05 6.212406e-05 0.000000e+00 -3.099118e-05 4.846839e-05 0.000000e+00 -3.352859e-05 8.101943e-05 0.000000e+00 -2.832777e-05 3.142132e-05 0.000000e+00 -2.207863e-05 6.314286e-06 0.000000e+00 -3.458028e-05 6.764159e-05 0.000000e+00 -2.989886e-05 3.939887e-05 0.000000e+00 -2.155692e-05 1.618124e-06 0.000000e+00 -1.474978e-05 -5.987470e-06 0.000000e+00 -2.060438e-05 -2.572405e-06 0.000000e+00 3.099015e-07 -6.770191e-07 0.000000e+00 4.119583e-06 2.068473e-08 0.000000e+00 9.635403e-06 3.957526e-06 0.000000e+00 -3.388574e-05 7.404189e-05 0.000000e+00 -9.466688e-06 -8.514823e-06 0.000000e+00 1.564100e-06 -3.184464e-07 0.000000e+00 1.101788e-06 8.181322e-05 0.000000e+00 3.028113e-06 7.886256e-05 0.000000e+00 7.063388e-06 7.144793e-05 0.000000e+00 6.425814e-06 6.357176e-05 0.000000e+00 3.456155e-06 5.501205e-05 0.000000e+00 -3.315600e-06 4.880766e-05 0.000000e+00 -1.075542e-05 4.646805e-05 0.000000e+00 -1.809966e-05 4.814627e-05 0.000000e+00 -2.161541e-05 5.086041e-05 0.000000e+00 -2.455452e-05 5.453183e-05 0.000000e+00 -2.654877e-05 5.851843e-05 0.000000e+00 -2.795721e-05 6.705843e-05 0.000000e+00 -2.740200e-05 7.104671e-05 0.000000e+00 -2.644955e-05 7.518601e-05 0.000000e+00 -2.110162e-05 8.227746e-05 0.000000e+00 -1.763129e-05 8.436166e-05 0.000000e+00 1.021708e-05 8.136035e-06 0.000000e+00 6.335865e-06 1.400450e-05 0.000000e+00 -8.830596e-06 -6.513144e-06 0.000000e+00 7.229287e-06 9.926374e-06 0.000000e+00 -3.324563e-08 -8.425307e-07 0.000000e+00 8.052975e-07 -5.610280e-07 0.000000e+00 2.461617e-06 -1.857032e-07 0.000000e+00 1.448368e-06 -3.492263e-07 0.000000e+00 3.496737e-06 -5.521134e-08 0.000000e+00 5.384285e-06 1.346552e-07 0.000000e+00 8.696752e-06 3.313314e-06 0.000000e+00 9.711668e-06 3.915102e-05 0.000000e+00 7.971735e-06 6.589815e-07 0.000000e+00 -2.651441e-05 2.341520e-05 0.000000e+00 8.347728e-06 4.478511e-05 0.000000e+00 -6.619823e-06 -6.952941e-06 0.000000e+00 -1.111160e-05 -5.815563e-06 0.000000e+00 7.113102e-07 -5.643637e-07 0.000000e+00 -2.242846e-05 1.111532e-05 0.000000e+00 7.803492e-06 6.122286e-06 0.000000e+00 -1.872792e-05 -5.549383e-06 0.000000e+00 -1.056136e-05 8.621305e-05 0.000000e+00 1.676023e-06 -2.977549e-07 0.000000e+00 -1.434141e-05 8.568544e-05 0.000000e+00 -2.473441e-05 7.972120e-05 0.000000e+00 -2.771289e-05 6.281930e-05 0.000000e+00 -2.854902e-05 5.456093e-05 0.000000e+00 -1.443297e-05 4.678456e-05 0.000000e+00 -7.021124e-06 4.699141e-05 0.000000e+00 5.247662e-07 5.117199e-05 0.000000e+00 7.292780e-06 6.725958e-05 0.000000e+00 9.444552e-08 -7.373305e-07 0.000000e+00 9.089319e-07 -5.276778e-07 0.000000e+00 1.794677e-06 -2.837882e-07 0.000000e+00 2.607947e-06 -1.713408e-07 0.000000e+00 3.677833e-06 -3.489128e-08 0.000000e+00 5.611749e-06 1.875740e-07 0.000000e+00 8.319486e-06 8.707297e-07 0.000000e+00 -2.470118e-05 1.638688e-05 0.000000e+00 -4.872651e-06 -5.597558e-06 0.000000e+00 -6.169113e-06 -5.363821e-06 0.000000e+00 -4.416496e-06 -6.326093e-06 0.000000e+00 -3.947795e-06 -4.457080e-06 0.000000e+00 -3.299654e-06 -4.824830e-06 0.000000e+00 3.398767e-07 -1.076011e-06 0.000000e+00 1.832136e-06 -4.370117e-07 0.000000e+00 5.706789e-06 4.288972e-07 0.000000e+00 2.694295e-06 -2.214081e-07 0.000000e+00 -2.059649e-05 1.986231e-05 0.000000e+00 4.832347e-06 2.189343e-07 0.000000e+00 4.596257e-06 2.900588e-05 0.000000e+00 1.273653e-06 -6.248035e-07 0.000000e+00 4.258206e-06 2.477844e-05 0.000000e+00 6.339105e-06 4.786329e-05 0.000000e+00 6.091648e-06 3.765127e-05 0.000000e+00 7.545348e-06 3.772409e-06 0.000000e+00 7.039670e-06 4.144209e-05 0.000000e+00 4.082364e-06 2.061194e-05 0.000000e+00 7.576062e-06 2.458692e-06 0.000000e+00 5.187322e-06 3.349766e-05 0.000000e+00 5.788994e-06 7.751847e-06 0.000000e+00 -1.755817e-05 8.214423e-06 0.000000e+00 -3.023024e-05 5.985261e-05 0.000000e+00 -2.220041e-05 2.766025e-05 0.000000e+00 -8.083982e-06 -4.498781e-06 0.000000e+00 6.394255e-07 -9.062893e-07 0.000000e+00 9.830054e-07 -6.980227e-07 0.000000e+00 -1.688767e-05 -3.276919e-07 0.000000e+00 4.673660e-06 5.117953e-05 0.000000e+00 3.487398e-06 1.664042e-05 0.000000e+00 -3.099668e-05 6.482850e-05 0.000000e+00 -1.713586e-05 4.352018e-05 0.000000e+00 -8.855685e-06 4.275759e-05 0.000000e+00 -1.199555e-05 -4.059469e-06 0.000000e+00 -1.601694e-05 -3.404681e-06 0.000000e+00 -7.645072e-07 4.683120e-05 0.000000e+00 -3.953918e-06 4.361443e-05 0.000000e+00 -1.300299e-05 4.278754e-05 0.000000e+00 -2.138753e-05 4.557778e-05 0.000000e+00 -2.555763e-05 4.947411e-05 0.000000e+00 -3.090756e-05 6.943951e-05 0.000000e+00 -2.973086e-05 7.360117e-05 0.000000e+00 -2.312256e-06 -3.772412e-06 0.000000e+00 -4.909474e-06 -3.952252e-06 0.000000e+00 -1.632502e-05 3.615280e-06 0.000000e+00 4.574484e-07 -9.840482e-07 0.000000e+00 3.594848e-06 -2.964499e-08 0.000000e+00 1.717587e-06 -4.563352e-07 0.000000e+00 1.179406e-06 -6.125826e-07 0.000000e+00 2.268507e-06 -2.974832e-07 0.000000e+00 4.536652e-06 1.622081e-07 0.000000e+00 5.423531e-06 3.355748e-07 0.000000e+00 7.586389e-06 1.717463e-06 0.000000e+00 6.399646e-06 6.272824e-07 0.000000e+00 3.079680e-06 -1.361307e-07 0.000000e+00 4.302836e-06 1.045659e-07 0.000000e+00 2.154697e-06 -3.140747e-07 0.000000e+00 6.904108e-06 6.914513e-07 0.000000e+00 5.726439e-07 -8.722336e-07 0.000000e+00 4.641751e-06 1.053412e-05 0.000000e+00 6.038106e-06 5.302766e-07 0.000000e+00 -2.392834e-05 3.538417e-05 0.000000e+00 7.295285e-07 -8.943737e-07 0.000000e+00 4.066747e-06 5.740993e-08 0.000000e+00 -2.949688e-05 7.795383e-05 0.000000e+00 5.202052e-06 2.322080e-07 0.000000e+00 2.675124e-06 4.748730e-05 0.000000e+00 2.536086e-06 -2.543501e-07 0.000000e+00 3.828138e-06 1.502869e-08 0.000000e+00 -2.024296e-05 3.969418e-05 0.000000e+00 1.108555e-06 -5.850072e-07 0.000000e+00 2.283642e-07 -1.121641e-06 0.000000e+00 1.527588e-06 -4.837062e-07 0.000000e+00 8.454940e-07 -8.220690e-07 0.000000e+00 -1.889612e-05 1.352451e-05 0.000000e+00 3.274331e-06 -9.654539e-08 0.000000e+00 7.191353e-06 9.409337e-07 0.000000e+00 2.659946e-06 1.314544e-05 0.000000e+00 -1.083711e-07 -1.304161e-06 0.000000e+00 1.432784e-06 -4.946894e-07 0.000000e+00 1.714081e-07 -1.017820e-06 0.000000e+00 -1.932043e-06 -3.955700e-06 0.000000e+00 6.600823e-08 -1.062979e-06 0.000000e+00 2.885945e-06 -1.760146e-07 0.000000e+00 1.983375e-06 -3.854933e-07 0.000000e+00 -2.533906e-05 4.273599e-05 0.000000e+00 -2.825962e-06 -4.992422e-06 0.000000e+00 -2.775140e-06 -3.399240e-06 0.000000e+00 -1.546434e-06 -4.086646e-06 0.000000e+00 -9.638172e-07 -3.148895e-06 0.000000e+00 -7.723955e-07 -3.015714e-06 0.000000e+00 -3.366029e-07 -2.373353e-06 0.000000e+00 -3.096205e-07 -2.281327e-06 0.000000e+00 -3.988264e-07 -2.420645e-06 0.000000e+00 6.653462e-08 -1.653653e-06 0.000000e+00 -7.389475e-07 -3.097983e-06 0.000000e+00 -3.007708e-07 -1.983441e-06 0.000000e+00 -1.144382e-06 -3.076385e-06 0.000000e+00 -1.630742e-08 -1.524442e-06 0.000000e+00 1.644030e-06 -4.344255e-07 0.000000e+00 2.402795e-06 -2.775305e-07 0.000000e+00 -1.607761e-05 2.380277e-05 0.000000e+00 1.316409e-06 -6.920167e-07 0.000000e+00 3.405955e-06 -7.176738e-08 0.000000e+00 7.436191e-06 1.229268e-06 0.000000e+00 4.719149e-06 4.403280e-05 0.000000e+00 -5.878007e-06 -3.023415e-06 0.000000e+00 1.159631e-06 3.108750e-05 0.000000e+00 6.394219e-06 3.925607e-06 0.000000e+00 -1.788291e-05 3.237250e-05 0.000000e+00 -9.201065e-06 -2.771327e-06 0.000000e+00 5.996161e-06 1.048640e-06 0.000000e+00 6.516601e-06 5.464012e-06 0.000000e+00 5.488359e-07 4.332890e-05 0.000000e+00 2.717208e-07 -1.374640e-06 0.000000e+00 -3.132204e-06 -5.729339e-06 0.000000e+00 1.223172e-06 1.865083e-05 0.000000e+00 3.861113e-06 7.912820e-06 0.000000e+00 5.000843e-08 -1.822880e-06 0.000000e+00 -1.295171e-05 -1.781910e-06 0.000000e+00 -6.919113e-06 3.867432e-05 0.000000e+00 1.540367e-07 -1.751499e-06 0.000000e+00 4.238338e-07 2.648248e-05 0.000000e+00 2.151359e-06 -3.898884e-07 0.000000e+00 2.445564e-06 1.021958e-05 0.000000e+00 1.460615e-06 -6.388110e-07 0.000000e+00 -1.480389e-05 1.632947e-05 0.000000e+00 5.094260e-06 5.395999e-07 0.000000e+00 5.132501e-06 5.717129e-06 0.000000e+00 4.108837e-06 2.095297e-07 0.000000e+00 3.430905e-06