<VTKFile type="UnstructuredGrid" version="0.1" byte_order="LittleEndian">
<UnstructuredGrid>
<Piece NumberOfPoints="1187" NumberOfCells="1187">
<Points>
 <DataArray type="Float64" NumberOfComponents="3" format="ascii"> -2.332000e-02 1.736043e-04 0.000000e+00 -2.232320e-02 1.539420e-04 0.000000e+00 -2.136317e-02 1.603477e-04 0.000000e+00 -2.040513e-02 1.642530e-04 0.000000e+00 -1.944433e-02 1.655560e-04 0.000000e+00 -1.848023e-02 1.652967e-04 0.000000e+00 -1.751903e-02 1.563843e-04 0.000000e+00 -1.656200e-02 1.559450e-04 0.000000e+00 -1.560550e-02 1.591977e-04 0.000000e+00 -1.464463e-02 1.630360e-04 0.000000e+00 -1.368757e-02 1.657183e-04 0.000000e+00 -1.272113e-02 1.614177e-04 0.000000e+00 -1.176670e-02 1.655930e-04 0.000000e+00 -1.080180e-02 1.615147e-04 0.000000e+00 -9.848193e-03 1.588433e-04 0.000000e+00 -8.875250e-03 1.613557e-04 0.000000e+00 -7.915243e-03 1.670577e-04 0.000000e+00 -6.956947e-03 1.640973e-04 0.000000e+00 -6.006427e-03 1.415340e-04 0.000000e+00 -5.035117e-03 1.576240e-04 0.000000e+00 -4.075140e-03 1.611887e-04 0.000000e+00 -3.122987e-03 1.483890e-04 0.000000e+00 -2.163810e-03 1.587610e-04 0.000000e+00 -1.195820e-03 1.744137e-04 0.000000e+00 -1.989733e-04 2.049480e-04 0.000000e+00 5.899183e-03 6.880700e-04 0.000000e+00 9.634380e-03 8.314163e-04 0.000000e+00 1.288147e-02 8.811043e-04 0.000000e+00 1.556457e-02 8.507557e-04 0.000000e+00 1.625697e-02 1.110600e-03 0.000000e+00 1.714523e-02 1.943163e-03 0.000000e+00 1.858460e-02 2.346393e-03 0.000000e+00 2.161180e-02 2.502910e-03 0.000000e+00 2.617350e-02 2.524113e-03 0.000000e+00 3.137873e-02 2.639627e-03 0.000000e+00 3.752137e-02 3.008683e-03 0.000000e+00 3.776597e-02 6.166347e-03 0.000000e+00 3.784643e-02 1.101230e-02 0.000000e+00 3.786090e-02 1.518913e-02 0.000000e+00 3.783230e-02 1.955867e-02 0.000000e+00 3.754713e-02 2.470217e-02 0.000000e+00 3.723927e-02 2.790707e-02 0.000000e+00 3.628640e-02 2.608390e-02 0.000000e+00 3.611833e-02 2.912723e-02 0.000000e+00 3.408643e-02 2.912723e-02 0.000000e+00 3.087660e-02 2.921273e-02 0.000000e+00 2.501827e-02 2.926087e-02 0.000000e+00 1.904280e-02 2.911593e-02 0.000000e+00 1.198477e-02 2.896897e-02 0.000000e+00 3.632203e-03 2.877927e-02 0.000000e+00 -6.986700e-03 2.871053e-02 0.000000e+00 -1.324537e-02 2.870067e-02 0.000000e+00 -1.980157e-02 2.827160e-02 0.000000e+00 -1.603787e-02 2.697227e-02 0.000000e+00 -2.214197e-02 2.605700e-02 0.000000e+00 -2.292793e-02 2.020170e-02 0.000000e+00 3.262367e-02 1.308173e-02 0.000000e+00 3.230910e-02 1.158190e-02 0.000000e+00 3.163363e-02 1.021931e-02 0.000000e+00 3.067930e-02 9.118857e-03 0.000000e+00 2.954320e-02 8.202103e-03 0.000000e+00 2.821697e-02 7.534673e-03 0.000000e+00 2.677307e-02 7.219233e-03 0.000000e+00 2.535023e-02 7.229130e-03 0.000000e+00 2.386283e-02 7.541663e-03 0.000000e+00 2.245127e-02 8.173457e-03 0.000000e+00 2.127943e-02 9.111423e-03 0.000000e+00 2.036480e-02 1.024937e-02 0.000000e+00 1.971930e-02 1.160353e-02 0.000000e+00 1.938457e-02 1.303760e-02 0.000000e+00 1.937697e-02 1.447027e-02 0.000000e+00 1.966720e-02 1.588373e-02 0.000000e+00 2.030720e-02 1.725297e-02 0.000000e+00 2.126137e-02 1.847507e-02 0.000000e+00 2.246777e-02 1.943387e-02 0.000000e+00 2.380200e-02 2.006090e-02 0.000000e+00 2.519913e-02 2.038260e-02 0.000000e+00 2.659083e-02 2.039017e-02 0.000000e+00 2.803923e-02 2.009040e-02 0.000000e+00 2.941547e-02 1.950650e-02 0.000000e+00 3.063903e-02 1.857997e-02 0.000000e+00 3.163043e-02 1.731373e-02 0.000000e+00 3.228907e-02 1.595550e-02 0.000000e+00 3.260633e-02 1.455787e-02 0.000000e+00 3.678733e-02 4.307610e-03 0.000000e+00 -2.364000e-02 1.736043e-04 0.000000e+00 -2.281467e-02 1.631223e-04 0.000000e+00 -2.309467e-02 3.367267e-04 0.000000e+00 -2.257787e-02 3.170643e-04 0.000000e+00 -2.184373e-02 1.550423e-04 0.000000e+00 -2.160690e-02 3.153900e-04 0.000000e+00 -2.087983e-02 1.651600e-04 0.000000e+00 -1.992243e-02 1.635233e-04 0.000000e+00 -1.896147e-02 1.715653e-04 0.000000e+00 -1.920580e-02 3.371213e-04 0.000000e+00 -1.872170e-02 3.368620e-04 0.000000e+00 -1.799830e-02 1.583367e-04 0.000000e+00 -1.704340e-02 1.550750e-04 0.000000e+00 -1.607933e-02 1.567140e-04 0.000000e+00 -1.512317e-02 1.617350e-04 0.000000e+00 -1.536867e-02 3.209327e-04 0.000000e+00 -1.488780e-02 3.247710e-04 0.000000e+00 -1.417147e-02 1.657430e-04 0.000000e+00 -1.320137e-02 1.615120e-04 0.000000e+00 -1.224380e-02 1.628883e-04 0.000000e+00 -1.248493e-02 3.243060e-04 0.000000e+00 -1.201050e-02 3.284813e-04 0.000000e+00 -1.128930e-02 1.641377e-04 0.000000e+00 -1.032373e-02 1.591453e-04 0.000000e+00 -9.361707e-03 1.591803e-04 0.000000e+00 -9.609900e-03 3.180237e-04 0.000000e+00 -9.116957e-03 3.205360e-04 0.000000e+00 -8.396620e-03 1.641813e-04 0.000000e+00 -8.151863e-03 3.312390e-04 0.000000e+00 -7.440907e-03 1.688460e-04 0.000000e+00 -6.475497e-03 1.541883e-04 0.000000e+00 -5.522450e-03 1.401560e-04 0.000000e+00 -5.768877e-03 2.816900e-04 0.000000e+00 -5.277567e-03 2.977800e-04 0.000000e+00 -4.557890e-03 1.618643e-04 0.000000e+00 -3.599783e-03 1.586310e-04 0.000000e+00 -2.639110e-03 1.465977e-04 0.000000e+00 -1.678670e-03 1.661163e-04 0.000000e+00 -1.922480e-03 3.248773e-04 0.000000e+00 -1.434490e-03 3.405300e-04 0.000000e+00 -7.058257e-04 1.853213e-04 0.000000e+00 4.950083e-03 1.130889e-03 0.000000e+00 3.849230e-03 5.918352e-04 0.000000e+00 7.838260e-03 7.557517e-04 0.000000e+00 1.133543e-02 8.656797e-04 0.000000e+00 1.427630e-02 8.817397e-04 0.000000e+00 1.640513e-02 1.806197e-03 0.000000e+00 1.733643e-02 2.723213e-03 0.000000e+00 1.805710e-02 2.874010e-03 0.000000e+00 1.993840e-02 2.425463e-03 0.000000e+00 2.375830e-02 2.577830e-03 0.000000e+00 2.505957e-02 3.101943e-03 0.000000e+00 3.005377e-02 3.205280e-03 0.000000e+00 2.871977e-02 2.565653e-03 0.000000e+00 3.409720e-02 2.803037e-03 0.000000e+00 3.707943e-02 7.335193e-03 0.000000e+00 3.781347e-02 8.701033e-03 0.000000e+00 3.715990e-02 9.769497e-03 0.000000e+00 3.788740e-02 1.314723e-02 0.000000e+00 3.774823e-02 1.729790e-02 0.000000e+00 3.770757e-02 2.198053e-02 0.000000e+00 1.732697e-02 2.813503e-02 0.000000e+00 1.557927e-02 2.901910e-02 0.000000e+00 3.269900e-02 2.833997e-02 0.000000e+00 2.935370e-02 2.845227e-02 0.000000e+00 2.781170e-02 2.923953e-02 0.000000e+00 2.639500e-02 2.850040e-02 0.000000e+00 2.223157e-02 2.922417e-02 0.000000e+00 1.381527e-02 2.798807e-02 0.000000e+00 8.031137e-03 2.889270e-02 0.000000e+00 -4.123090e-03 2.728437e-02 0.000000e+00 -1.198417e-03 2.857383e-02 0.000000e+00 -1.002719e-02 2.741120e-02 0.000000e+00 3.294570e-02 1.223310e-02 0.000000e+00 3.308240e-02 1.382250e-02 0.000000e+00 3.240927e-02 1.066846e-02 0.000000e+00 3.151247e-02 9.382083e-03 0.000000e+00 3.036437e-02 8.311407e-03 0.000000e+00 2.906530e-02 7.459887e-03 0.000000e+00 2.756433e-02 6.933003e-03 0.000000e+00 2.604700e-02 6.802027e-03 0.000000e+00 2.451277e-02 6.968320e-03 0.000000e+00 2.295897e-02 7.446843e-03 0.000000e+00 2.158077e-02 8.277360e-03 0.000000e+00 2.046297e-02 9.380470e-03 0.000000e+00 1.962013e-02 1.072123e-02 0.000000e+00 1.909593e-02 1.221973e-02 0.000000e+00 1.891300e-02 1.375080e-02 0.000000e+00 1.906483e-02 1.527593e-02 0.000000e+00 1.955993e-02 1.677317e-02 0.000000e+00 2.042313e-02 1.817600e-02 0.000000e+00 2.157573e-02 1.932917e-02 0.000000e+00 2.294480e-02 2.016120e-02 0.000000e+00 2.440160e-02 2.064950e-02 0.000000e+00 2.589963e-02 2.081680e-02 0.000000e+00 2.739473e-02 2.065897e-02 0.000000e+00 2.894647e-02 2.018490e-02 0.000000e+00 3.032357e-02 1.941143e-02 0.000000e+00 3.151980e-02 1.822977e-02 0.000000e+00 3.238047e-02 1.681127e-02 0.000000e+00 3.289473e-02 1.536320e-02 0.000000e+00 -1.138429e-03 8.096280e-03 0.000000e+00 -2.208693e-02 3.089843e-04 0.000000e+00 -2.112300e-02 3.255077e-04 0.000000e+00 -2.016757e-02 3.277763e-04 0.000000e+00 -1.775733e-02 3.147210e-04 0.000000e+00 -1.823853e-02 3.236333e-04 0.000000e+00 -1.728243e-02 3.114593e-04 0.000000e+00 -1.632133e-02 3.126590e-04 0.000000e+00 -1.393903e-02 3.314613e-04 0.000000e+00 -1.441610e-02 3.287790e-04 0.000000e+00 -1.344893e-02 3.272303e-04 0.000000e+00 -1.105110e-02 3.256523e-04 0.000000e+00 -1.153600e-02 3.297307e-04 0.000000e+00 -1.056553e-02 3.206600e-04 0.000000e+00 -8.631870e-03 3.255370e-04 0.000000e+00 -7.676150e-03 3.359037e-04 0.000000e+00 -6.712443e-03 3.182857e-04 0.000000e+00 -4.313030e-03 3.230530e-04 0.000000e+00 -4.793007e-03 3.194883e-04 0.000000e+00 -3.834923e-03 3.198197e-04 0.000000e+00 -2.882097e-03 2.949867e-04 0.000000e+00 -4.247990e-04 3.902693e-04 0.000000e+00 -9.416457e-04 3.597350e-04 0.000000e+00 6.837617e-03 1.229541e-03 0.000000e+00 1.043452e-02 1.369913e-03 0.000000e+00 1.359147e-02 1.341531e-03 0.000000e+00 1.928013e-02 2.771857e-03 0.000000e+00 2.269583e-02 3.080740e-03 0.000000e+00 2.752970e-02 3.089767e-03 0.000000e+00 3.266823e-02 3.442663e-03 0.000000e+00 3.723383e-02 1.202530e-02 0.000000e+00 3.710913e-02 1.624160e-02 0.000000e+00 3.703987e-02 2.079103e-02 0.000000e+00 2.364283e-02 2.848503e-02 0.000000e+00 1.001834e-02 2.786167e-02 0.000000e+00 1.148280e-03 2.735310e-02 0.000000e+00 -2.187153e-02 1.781887e-02 0.000000e+00 -1.584483e-02 3.159117e-04 0.000000e+00 -2.402920e-03 3.053587e-04 0.000000e+00 1.209650e-02 1.370374e-03 0.000000e+00 1.496447e-02 1.270496e-03 0.000000e+00 3.675470e-02 2.326907e-02 0.000000e+00 -1.968677e-02 3.290793e-04 0.000000e+00 -2.064497e-02 3.294130e-04 0.000000e+00 -1.680540e-02 3.110200e-04 0.000000e+00 -1.296250e-02 3.229297e-04 0.000000e+00 -1.009193e-02 3.179887e-04 0.000000e+00 -6.241923e-03 2.957223e-04 0.000000e+00 -7.197853e-03 3.329433e-04 0.000000e+00 -3.362770e-03 3.070200e-04 0.000000e+00 8.672683e-03 1.313877e-03 0.000000e+00 2.076100e-02 2.928373e-03 0.000000e+00 3.708053e-02 1.843863e-02 0.000000e+00 3.724830e-02 1.411830e-02 0.000000e+00 2.070107e-02 2.834010e-02 0.000000e+00 5.806120e-03 2.767197e-02 0.000000e+00 -2.113147e-02 6.741743e-04 0.000000e+00 -2.017700e-02 6.675697e-04 0.000000e+00 -1.681017e-02 6.413607e-04 0.000000e+00 -1.776050e-02 6.320880e-04 0.000000e+00 -2.065687e-02 6.803663e-04 0.000000e+00 -2.042647e-02 8.549997e-04 0.00000
[...]
<PointData Scalars="" Vectors="IST_PrincipalStressTensor IST_PrincStressVector1 " Tensors="IST_StressTensor IST_StrainTensor " >
  <DataArray type="Float64" Name="IST_StressTensor" NumberOfComponents="9" format="ascii">-2.236208e+01 -8.876175e+00 0.000000e+00 -8.876175e+00 -1.776843e+02 0.000000e+00 0.000000e+00 0.000000e+00 0.000000e+00 -7.211994e+00 -4.027698e+00 0.000000e+00 -4.027698e+00 -1.587988e+02 0.000000e+00 0.000000e+00 0.000000e+00 0.000000e+00 6.953185e-01 -2.941035e+00 0.000000e+00 -2.941035e+00 -1.416041e+02 0.000000e+00 0.000000e+00 0.000000e+00 0.000000e+00 5.883267e+00 -2.621096e+00 0.000000e+00 -2.621096e+00 -1.253186e+02 0.000000e+00 0.000000e+00 0.000000e+00 0.000000e+00 1.076629e+01 -2.599826e+00 0.000000e+00 -2.599826e+00 -1.103874e+02 0.000000e+00 0.000000e+00 0.000000e+00 0.000000e+00 1.585457e+01 -2.656856e+00 0.000000e+00 -2.656856e+00 -9.582326e+01 0.000000e+00 0.000000e+00 0.000000e+00 0.000000e+00 2.153350e+01 -2.509330e+00 0.000000e+00 -2.509330e+00 -8.256414e+01 0.000000e+00 0.000000e+00 0.000000e+00 0.000000e+00 2.763402e+01 -2.605562e+00 0.000000e+00 -2.605562e+00 -6.992593e+01 0.000000e+00 0.000000e+00 0.000000e+00 0.000000e+00 3.436589e+01 -2.731706e+00 0.000000e+00 -2.731706e+00 -5.787368e+01 0.000000e+00 0.000000e+00 0.000000e+00 0.000000e+00 4.162728e+01 -2.906352e+00 0.000000e+00 -2.906352e+00 -4.628650e+01 0.000000e+00 0.000000e+00 0.000000e+00 0.000000e+00 4.934311e+01 -3.133700e+00 0.000000e+00 -3.133700e+00 -3.441193e+01 0.000000e+00 0.000000e+00 0.000000e+00 0.000000e+00 5.794021e+01 -3.183529e+00 0.000000e+00 -3.183529e+00 -2.326636e+01 0.000000e+00 0.000000e+00 0.000000e+00 0.000000e+00 6.721009e+01 -3.468651e+00 0.000000e+00 -3.468651e+00 -1.217159e+01 0.000000e+00 0.000000e+00 0.000000e+00 0.000000e+00 7.709075e+01 -3.679529e+00 0.000000e+00 -3.679529e+00 -8.918485e-02 0.000000e+00 0.000000e+00 0.000000e+00 0.000000e+00 8.811709e+01 -3.863743e+00 0.000000e+00 -3.863743e+00 1.184491e+01 0.000000e+00 0.000000e+00 0.000000e+00 0.000000e+00 9.990114e+01 -4.344586e+00 0.000000e+00 -4.344586e+00 2.545025e+01 0.000000e+00 0.000000e+00 0.000000e+00 0.000000e+00 1.130267e+02 -4.961330e+00 0.000000e+00 -4.961330e+00 4.009845e+01 0.000000e+00 0.000000e+00 0.000000e+00 0.000000e+00 1.282839e+02 -5.574372e+00 0.000000e+00 -5.574372e+00 5.514873e+01 0.000000e+00 0.000000e+00 0.000000e+00 0.000000e+00 1.454962e+02 -5.699577e+00 0.000000e+00 -5.699577e+00 7.398218e+01 0.000000e+00 0.000000e+00 0.000000e+00 0.000000e+00 1.659610e+02 -7.583547e+00 0.000000e+00 -7.583547e+00 9.499480e+01 0.000000e+00 0.000000e+00 0.000000e+00 0.000000e+00 1.917482e+02 -9.824703e+00 0.000000e+00 -9.824703e+00 1.204582e+02 0.000000e+00 0.000000e+00 0.000000e+00 0.000000e+00 2.270367e+02 -1.294464e+01 0.000000e+00 -1.294464e+01 1.547999e+02 0.000000e+00 0.000000e+00 0.000000e+00 0.000000e+00 2.808962e+02 -2.248968e+01 0.000000e+00 -2.248968e+01 2.036214e+02 0.000000e+00 0.000000e+00 0.000000e+00 0.000000e+00 3.837160e+02 -5.467109e+01 0.000000e+00 -5.467109e+01 2.970777e+02 0.000000e+00 0.000000e+00 0.000000e+00 0.000000e+00 5.829056e+02 -1.741506e+02 0.000000e+00 -1.741506e+02 5.984331e+02 0.000000e+00 0.000000e+00 0.000000e+00 0.000000e+00 6.470422e+01 3.340903e+00 0.000000e+00 3.340903e+00 2.203784e+00 0.000000e+00 0.000000e+00 0.000000e+00 0.000000e+00 5.671873e+01 3.829669e+00 0.000000e+00 3.829669e+00 -9.382192e-01 0.000000e+00 0.000000e+00 0.000000e+00 0.000000e+00 4.377998e+01 5.156793e+00 0.000000e+00 5.156793e+00 -5.822167e-01 0.000000e+00 0.000000e+00 0.000000e+00 0.000000e+00 2.258238e+01 6.901581e+00 0.000000e+00 6.901581e+00 1.122834e+00 0.000000e+00 0.000000e+00 0.000000e+00 0.000000e+00 2.761443e+01 8.064103e+00 0.000000e+00 8.064103e+00 3.139579e+00 0.000000e+00 0.000000e+00 0.000000e+00 0.000000e+00 4.830902e+01 1.797634e+01 0.000000e+00 1.797634e+01 8.741593e+00 0.000000e+00 0.000000e+00 0.000000e+00 0.000000e+00 5.657875e+01 1.255522e+01 0.000000e+00 1.255522e+01 6.429035e+00 0.000000e+00 0.000000e+00 0.000000e+00 0.000000e+00 1.382529e+01 6.689429e+00 0.000000e+00 6.689429e+00 1.149428e+00 0.000000e+00 0.000000e+00 0.000000e+00 0.000000e+00 -1.074038e+01 3.584403e+00 0.000000e+00 3.584403e+00 3.971401e+00 0.000000e+00 0.000000e+00 0.000000e+00 0.000000e+00 -9.649151e+00 -2.073159e+00 0.000000e+00 -2.073159e+00 1.273376e+00 0.000000e+00 0.000000e+00 0.000000e+00 0.000000e+00 -8.664408e-01 -8.930458e-01 0.000000e+00 -8.930458e-01 -9.204678e-01 0.000000e+00 0.000000e+00 0.000000e+00 0.000000e+00 -2.423500e-01 -9.760726e-01 0.000000e+00 -9.760726e-01 -3.635101e+00 0.000000e+00 0.000000e+00 0.000000e+00 0.000000e+00 9.507997e-01 8.784944e-01 0.000000e+00 8.784944e-01 -5.465923e+00 0.000000e+00 0.000000e+00 0.000000e+00 0.000000e+00 -6.985681e-02 1.710190e+00 0.000000e+00 1.710190e+00 6.072701e-01 0.000000e+00 0.000000e+00 0.000000e+00 0.000000e+00 -7.256382e-01 6.225026e-01 0.000000e+00 6.225026e-01 5.525492e+00 0.000000e+00 0.000000e+00 0.000000e+00 0.000000e+00 -3.765065e-01 -9.611356e-01 0.000000e+00 -9.611356e-01 3.210080e+00 0.000000e+00 0.000000e+00 0.000000e+00 0.000000e+00 3.279900e-01 -8.205942e-01 0.000000e+00 -8.205942e-01 8.658428e-01 0.000000e+00 0.000000e+00 0.000000e+00 0.000000e+00 8.179257e-02 -1.040421e+00 0.000000e+00 -1.040421e+00 4.949928e-01 0.000000e+00 0.000000e+00 0.000000e+00 0.000000e+00 8.987149e-01 -9.745234e-01 0.000000e+00 -9.745234e-01 -3.148002e-01 0.000000e+00 0.000000e+00 0.000000e+00 0.000000e+00 2.785583e+00 -5.422717e-01 0.000000e+00 -5.422717e-01 2.544735e-02 0.000000e+00 0.000000e+00 0.000000e+00 0.000000e+00 4.254927e+00 1.690288e-01 0.000000e+00 1.690288e-01 -1.660500e+00 0.000000e+00 0.000000e+00 0.000000e+00 0.000000e+00 -4.698183e+00 4.049900e+00 0.000000e+00 4.049900e+00 -2.006295e+00 0.000000e+00 0.000000e+00 0.000000e+00 0.000000e+00 -3.596149e+01 8.396272e+00 0.000000e+00 8.396272e+00 -9.837217e-01 0.000000e+00 0.000000e+00 0.000000e+00 0.000000e+00 -7.721096e+01 9.103687e+00 0.000000e+00 9.103687e+00 1.614813e+00 0.000000e+00 0.000000e+00 0.000000e+00 0.000000e+00 -1.065082e+02 4.543701e+00 0.000000e+00 4.543701e+00 6.041226e+00 0.000000e+00 0.000000e+00 0.000000e+00 0.000000e+00 -8.162084e+01 -1.021052e+01 0.000000e+00 -1.021052e+01 8.206779e+00 0.000000e+00 0.000000e+00 0.000000e+00 0.000000e+00 -3.800330e+01 -1.548309e+01 0.000000e+00 -1.548309e+01 1.774510e+00 0.000000e+00 0.000000e+00 0.000000e+00 0.000000e+00 -6.208719e+00 -5.828847e+00 0.000000e+00 -5.828847e+00 -5.096898e+00 0.000000e+00 0.000000e+00 0.000000e+00 0.000000e+00 -2.828470e+01 -1.376039e+01 0.000000e+00 -1.376039e+01 -4.224626e+00 0.000000e+00 0.000000e+00 0.000000e+00 0.000000e+00 -5.072584e+00 -5.589673e+00 0.000000e+00 -5.589673e+00 -5.561635e+00 0.000000e+00 0.000000e+00 0.000000e+00 0.000000e+00 -1.524497e+00 -1.503346e+01 0.000000e+00 -1.503346e+01 -3.378563e+01 0.000000e+00 0.000000e+00 0.000000e+00 0.000000e+00 2.652367e+00 4.526969e+00 0.000000e+00 4.526969e+00 -3.586784e+00 0.000000e+00 0.000000e+00 0.000000e+00 0.000000e+00 5.619803e+00 2.296572e+00 0.000000e+00 2.296572e+00 -3.577661e+00 0.000000e+00 0.000000e+00 0.000000e+00 0.000000e+00 7.005552e+00 -6.406952e-01 0.000000e+00 -6.406952e-01 -1.887849e+00 0.000000e+00 0.000000e+00 0.000000e+00 0.000000e+00 6.278357e+00 -2.582241e+00 0.000000e+00 -2.582241e+00 1.424087e+00 0.000000e+00 0.000000e+00 0.000000e+00 0.000000e+00 3.301135e+00 -2.312417e+00 0.000000e+00 -2.312417e+00 5.460877e+00 0.000000e+00 0.000000e+00 0.000000e+00 0.000000e+00 1.060595e-01 1.765825e+00 0.000000e+00 1.765825e+00 9.189843e+00 0.000000e+00 0.000000e+00 0.000000e+00 0.000000e+00 7.985219e-02 7.393682e+00 0.000000e+00 7.393682e+00 1.059179e+01 0.000000e+00 0.000000e+00 0.000000e+00 0.000000e+00 8.022449e-01 1.529593e+01 0.000000e+00 1.529593e+01 1.005762e+01 0.000000e+00 0.000000e+00 0.000000e+00 0.000000e+00 3.552778e+00 2.288609e+01 0.000000e+00 2.288609e+01 8.779131e+00 0.000000e+00 0.000000e+00 0.000000e+00 0.000000e+00 1.298143e+01 2.988190e+01 0.000000e+00 2.988190e+01 6.579707e+00 0.000000e+00 0.000000e+00 0.000000e+00 0.000000e+00 1.789408e+01 3.298671e+01 0.000000e+00 3.298671e+01 3.132525e+00 0.000000e+00 0.000000e+00 0.000000e+00 0.000000e+00 1.972477e+01 3.391970e+01 0.000000e+00 3.391970e+01 1.549304e-01 0.000000e+00 0.000000e+00 0.000000e+00 0.000000e+00 1.805885e+01 3.333937e+01 0.000000e+00 3.333937e+01 -1.245360e+00 0.000000e+00 0.000000e+00 0.000000e+00 0.000000e+00 1.229261e+01 3.241009e+01 0.000000e+00 3.241009e+01 -1.580755e+00 0.000000e+00 0.000000e+00 0.000000e+00 0.000000e+00 4.230705e+00 3.232351e+01 0.000000e+00 3.232351e+01 -1.385050e+00 0.000000e+00 0.000000e+00 0.000000e+00 0.000000e+00 -3.989852e+00 3.399882e+01 0.000000e+00 3.399882e+01 -9.919385e-01 0.000000e+00 0.000000e+00 0.000000e+00 0.000000e+00 -8.115344e+00 3.674559e+01 0.000000e+00 3.674559e+01 -3.050016e+00 0.000000e+00 0.000000e+00 0.000000e+00 0.000000e+00 -7.893011e+00 3.749230e+01 0.000000e+00 3.749230e+01 -7.756287e+00 0.000000e+00 0.000000e+00 0.000000e+00 0.000000e+00 -4.142744e+00 3.470443e+01 0.000000e+00 3.470443e+01 -1.302712e+01 0.000000e+00 0.000000e+00 0.000000e+00 0.000000e+00 7.367065e-02 2.892744e+01 0.000000e+00 2.892744e+01 -1.666572e+01 0.000000e+00 0.000000e+00 0.000000e+00 0.000000e+00 2.800091e+00 2.252430e+01 0.000000e+00 2.252430e+01 -1.881095e+01 0.000000e+00 0.000000e+00 0.000000e+00 0.000000e+00 4.141537e+00 1.483003e+01 0.000000e+00 1.483003e+01 -1.982677e+01 0.000000e+00 0.000000e+00 0.000000e+00 0.000000e+00 3.233742e+00 7.384439e+00 0.000000e+00 7.384439e+00 -1.802700e+01 0.000000e+00 0.000000e+00 0.000000e+00 0.000000e+00 4.719548e-01 2.029227e+00 0.000000e+00 2.029227e+00 -1.452370e+01 0.000000e+00 0.000000e+00 0.000000e+00 0.000000e+00 -3.235537e+00 9.553254e-01 0.000000e+00 9.553254e-01 -8.750882e+00 0.000000e+00 0.000000e+00 0.000000e+00 0.000000e+00 -4.126136e+00 2.415323e+00 0.000000e+00 2.415323e+00 -5.291756e+00 0.000000e+00 0.000000e+00 0.000000e+00 0.000000e+00 -2.745667e+00 4.097686e+00 0.000000e+00 4.097686e+00 -3.647912e+00 0.000000e+00 0.000000e+00 0.000000e+00 0.000000e+00 -3.995096e-01 4.982843e+00 0.000000e+00 4.982843e+00 -3.402560e+00 0.000000e+00 0.000000e+00 0.000000e+00 0.000000e+00 1.574052e-02 -1.114958e+00 0.000000e+00 -1.114958e+00 -9.287787e-01 0.000000e+00 0.000000e+00 0.000000e+00 0.000000e+00 -3.733247e+01 -7.668916e+00 0.000000e+00 -7.668916e+00 -1.821754e+02 0.000000e+00 0.000000e+00 0.000000e+00 0.000000e+00 -1.316966e+01 -5.667139e+00 0.000000e+00 -5.667139e+00 -1.685775e+02 0.000000e+00 0.000000e+00 0.000000e+00 0.000000e+00 -1.003421e+01 -3.977558e+00 0.000000e+00 -3.977558e+00 -1.699661e+02 0.000000e+00 0.000000e+00 0.000000e+00 0.000000e+00 -5.876573e+00 -1.625564e+00 0.000000e+00 -1.625564e+00 -1.620923e+02 0.000000e+00 0.000000e+00 0.000000e+00 0.000000e+00 -2.683345e+00 -3.283665e+00 0.000000e+00 -3.283665e+00 -1.500874e+02 0.000000e+00 0.000000e+00 0.000000e+00 0.000000e+00 1.265501e-02 -2.019557e-01 0.000000e+00 -2.019557e-01 -1.453206e+02 0.000000e+00 0.000000e+00 0.000000e+00 0.000000e+00 3.359549e+00 -2.782475e+00 0.000000e+00 -2.782475e+00 -1.331000e+02 0.000000e+00 0.000000e+00 0.000000e+00 0.000000e+00 8.250624e+00 -2.572639e+00 0.000000e+00 -2.572639e+00 -1.176016e+02 0.000000e+00 0.000000e+00 0.000000e+00 0.000000e+00 1.322020e+01 -2.730855e+00 0.000000e+00 -2.730855e+00 -1.029364e+02 0.000000e+00 0.000000e+00 0.000000e+00 0.000000e+00 1.165885e+01 2.180769e-02 0.000000e+00 2.180769e-02 -1.065829e+02 0.000000e+00 0.000000e+00 0.000000e+00 0.000000e+00 1.475202e+01 -1.080645e-01 0.000000e+00 -1.080645e-01 -9.934092e+01 0.000000e+00 0.000000e+00 0.000000e+00 0.000000e+00 1.857577e+01 -2.552693e+00 0.000000e+00 -2.552693e+00 -8.886980e+01 0.000000e+00 0.000000e+00 0.000000e+00 0.000000e+00 2.463912e+01 -2.540995e+00 0.000000e+00 -2.540995e+00 -7.653726e+01 0.000000e+00 0.000000e+00 0.000000e+00 0.000000e+00 3.086773e+01 -2.680513e+00 0.000000e+00 -2.680513e+00 -6.366434e+01 0.000000e+00 0.000000e+00 0.000000e+00 0.000000e+00 3.785839e+01 -2.848004e+00 0.000000e+00 -2.848004e+00 -5.186622e+01 0.000000e+00 0.000000e+00 0.000000e+00 0.000000e+00 3.577703e+01 -7.448098e-01 0.000000e+00 -7.448098e-01 -5.481855e+01 0.000000e+00 0.000000e+00 0.000000e+00 0.000000e+00 3.954989e+01 -9.302046e-01 0.000000e+00 -9.302046e-01 -4.901591e+01 0.000000e+00 0.000000e+00 0.000000e+00 0.000000e+00 4.546664e+01 -3.034647e+00 0.000000e+00 -3.034647e+00 -4.051546e+01 0.000000e+00 0.000000e+00 0.000000e+00 0.000000e+00 5.351746e+01 -3.138739e+00 0.000000e+00 -3.138739e+00 -2.869719e+01 0.000000e+00 0.000000e+00 0.000000e+00 0.000000e+00 6.248923e+01 -3.300530e+00 0.000000e+00 -3.300530e+00 -1.777482e+01 0.000000e+00 0.000000e+00 0.000000e+00 0.000000e+00 5.983745e+01 -1.338129e+00 0.000000e+00 -1.338129e+00 -2.055973e+01 0.000000e+00 0.000000e+00 0.000000e+00 0.000000e+00 6.427425e+01 -1.430180e+00 0.000000e+00 -1.430180e+00 -1.498875e+01 0.000000e+00 0.000000e+00 0.000000e+00 0.000000e+00 7.212905e+01 -3.568067e+00 0.000000e+00 -3.568067e+00 -6.418144e+00 0.000000e+00 0.000000e+00 0.000000e+00 0.000000e+00 8.240042e+01 -3.720558e+00 0.000000e+00 -3.720558e+00 6.066705e+00 0.000000e+00 0.000000e+00 0.000000e+00 0.000000e+00 9.394306e+01 -4.107981e+00 0.000000e+00 -4.107981e+00 1.827215e+01 0.000000e+00 0.000000e+00 0.000000e+00 0.000000e+00 9.028069e+01 -1.883387e+00 0.000000e+00 -1.883387e+00 1.497531e+01 0.000000e+00 0.000000e+00 0.000000e+00 0.000000e+00 9.628499e+01 -1.848634e+00 0.000000e+00 -1.848634e+00 2.163908e+01 0.000000e+00 0.000000e+00 0.000000e+00 0.000000e+00 1.062405e+02 -4.635822e+00 0.000000e+00 -4.635822e+00 3.276712e+01 0.000000e+00 0.000000e+00 0.000000e+00 0.000000e+00 1.087476e+02 -2.271921e+00 0.000000e+00 -2.271921e+00 3.605642e+01 0.000000e+00 0.000000e+00 0.000000e+00 0.000000e+00 1.204874e+02 -5.298170e+00 0.000000e+00 -5.298170e+00 4.717833e+01 0.000000e+00 0.000000e+00 0.000000e+00 0.000000e+00 1.364137e+02 -5.661919e+00 0.000000e+00 -5.661919e+00 6.447441e+01 0.000000e+00 0.000000e+00 0.000000e+00 0.000000e+00 1.555849e+02 -6.195051e+00 0.000000e+00 -6.195051e+00 8.358462e+01 0.000000e+00 0.000000e+00 0.000000e+00 0.000000e+00 1.491827e+02 -2.981859e+00 0.000000e+00 -2.981859e+00 7.853797e+01 0.000000e+00 0.000000e+00 0.000000e+00 0.000000e+00 1.571439e+02 -3.335903e+00 0.000000e+00 -3.335903e+00 8.838419e+01 0.000000e+00 0.000000e+00 0.000000e+00 0.000000e+00 1.780838e+02 -8.615980e+00 0.000000e+00 -8.615980e+00 1.069295e+02 0.000000e+00 0.000000e+00 0.000000e+00 0.000000e+00 2.079429e+02 -1.134929e+01 0.000000e+00 -1.134929e+01 1.355876e+02 0.000000e+00 0.000000e+00 0.000000e+00 0.000000e+00 2.508225e+02 -1.600360e+01 0.000000e+00 -1.600360e+01 1.767692e+02 0.000000e+00 0.000000e+00 0.000000e+00 0.000000e+00 3.223421e+02 -3.372527e+01 0.000000e+00 -3.372527e+01 2.415289e+02 0.000000e+00 0.000000e+00 0.000000e+00 0.000000e+00 2.696056e+02 -1.575170e+01 0.000000e+00 -1.575170e+01 2.134505e+02 0.000000e+00 0.000000e+00 0.000000e+00 0.000000e+00 2.906193e+02 -2.505139e+01 0.000000e+00 -2.505139e+01 2.504044e+02 0.000000e+00 0.000000e+00 0.000000e+00 0.000000e+00 4.745554e+02 -9.692016e+01 0.000000e+00 -9.692016e+01 3.954365e+02 0.000000e+00 0.000000e+00 0.000000e+00 0.000000e+00 1.015496e+02 2.415806e+00 0.000000e+00 2.415806e+00 -4.153964e-01 0.000000e+00 0.000000e+00 0.000000e+00 0.000000e+00 6.070255e+01 4.395122e-01 0.000000e+00 4.395122e-01 -3.618183e+00 0.000000e+00 0.000000e+00 0.000000e+00 0.000000e+00 6.102852e+01 3.037138e+00 0.000000e+00 3.037138e+00 -4.275084e-01 0.000000e+00 0.000000e+00 0.000000e+00 0.000000e+00 5.089644e+01 4.528508e+00 0.000000e+00 4.528508e+00 -5.815588e-01 0.000000e+00 0.000000e+00 0.000000e+00 0.000000e+00 3.483168e+01 6.039553e+00 0.000000e+00 6.039553e+00 -8.300410e-01 0.000000e+00 0.000000e+00 0.000000e+00 0.000000e+00 3.090145e+01 1.339049e+01 0.000000e+00 1.339049e+01 1.230536e+00 0.000000e+00 0.000000e+00 0.000000e+00 0.000000e+00 4.019202e+01 1.139317e+01 0.000000e+00 1.139317e+01 6.511426e+00 0.000000e+00 0.000000e+00 0.000000e+00 0.000000e+00 3.642876e+01 1.509665e+01 0.000000e+00 1.509665e+01 7.605076e+00 0.000000e+00 0.000000e+00 0.000000e+00 0.000000e+00 3.105310e+01 7.956665e+00 0.000000e+00 7.956665e+00 1.276683e+00 0.000000e+00 0.000000e+00 0.000000e+00 0.000000e+00 -1.436626e-01 5.662170e+00 0.000000e+00 5.662170e+00 3.120237e+00 0.000000e+00 0.000000e+00 0.000000e+00 0.000000e+00 -2.046676e+00 2.426609e+00 0.000000e+00 2.426609e+00 -1.541518e+00 0.000000e+00 0.000000e+00 0.000000e+00 0.000000e+00 -6.257805e+00 -1.159449e+00 0.000000e+00 -1.159449e+00 -1.048717e+00 0.000000e+00 0.000000e+00 0.000000e+00 0.000000e+00 -1.358877e+01 6.852028e-02 0.000000e+00 6.852028e-02 2.733731e+00 0.000000e+00 0.000000e+00 0.000000e+00 0.000000e+00 -4.096398e+00 -2.028159e+00 0.000000e+00 -2.028159e+00 -1.741562e-01 0.000000e+00 0.000000e+00 0.000000e+00 0.000000e+00 6.933360e-02 -1.160257e+00 0.000000e+00 -1.160257e+00 -3.251912e+00 0.000000e+00 0.000000e+00 0.000000e+00 0.000000e+00 9.130272e-01 -3.290752e-01 0.000000e+00 -3.290752e-01 -5.792670e+00 0.000000e+00 0.000000e+00 0.000000e+00 0.000000e+00 4.958059e-02 -9.005119e-02 0.000000e+00 -9.005119e-02 -4.359456e+00 0.000000e+00 0.000000e+00 0.000000e+00 0.000000e+00 5.453858e-01 1.519110e+00 0.000000e+00 1.519110e+00 -2.993644e+00 0.000000e+00 0.000000e+00 0.000000e+00 0.000000e+00 -5.831971e-01 1.245029e+00 0.000000e+00 1.245029e+00 3.531082e+00 0.000000e+00 0.000000e+00 0.000000e+00 0.000000e+00 -5.632376e-01 -2.264187e-01 0.000000e+00 -2.264187e-01 5.153102e+00 0.000000e+00 0.000000e+00 0.000000e+00 0.000000e+00 -3.564166e+01 8.890259e+00 0.000000e+00 8.890259e+00 4.318908e-03 0.000000e+00 0.000000e+00 0.000000e+00 0.000000e+00 -5.662008e+01 9.116208e+00 0.000000e+00 9.116208e+00 -2.083341e-01 0.000000e+00 0.000000e+00 0.000000e+00 0.000000e+00 9.701929e-01 -8.198659e-01 0.000000e+00 -8.198659e-01 3.323039e-01 0.000000e+00 0.000000e+00 0.000000e+00 0.000000e+00 7.674599e-02 6.036634e-01 0.000000e+00 6.036634e-01 4.804526e-01 0.000000e+00 0.000000e+00 0.000000e+00 0.000000e+00 2.201203e+00 1.940272e+00 0.000000e+00 1.940272e+00 -2.159566e+00 0.000000e+00 0.000000e+00 0.000000e+00 0.000000e+00 -4.485231e+00 2.728693e+00 0.000000e+00 2.728693e+00 3.265456e-01 0.000000e+00 0.000000e+00 0.000000e+00 0.000000e+00 -1.745056e+01 6.436736e+00 0.000000e+00 6.436736e+00 -1.935977e+00 0.000000e+00 0.000000e+00 0.000000e+00 0.000000e+00 -5.096904e+01 9.021799e+00 0.000000e+00 9.021799e+00 -7.065072e-01 0.000000e+00 0.000000e+00 0.000000e+00 0.000000e+00 -9.540410e+01 7.562195e+00 0.000000e+00 7.562195e+00 3.571596e+00 0.000000e+00 0.000000e+00 0.000000e+00 0.000000e+00 -6.681474e+01 -1.101456e+01 0.000000e+00 -1.101456e+01 -2.007303e+00 0.000000e+00 0.000000e+00 0.000000e+00 0.000000e+00 -1.033423e+02 -2.260990e+00 0.000000e+00 -2.260990e+00 8.173002e+00 0.000000e+00 0.000000e+00 0.000000e+00 0.000000e+00 -4.864937e+01 -1.203035e+01 0.000000e+00 -1.203035e+01 -3.295601e+00 0.000000e+00 0.000000e+00 0.000000e+00 0.000000e+00 5.003662e+00 2.432274e+00 0.000000e+00 2.432274e+00 -2.657896e+00 0.000000e+00 0.000000e+00 0.000000e+00 0.000000e+00 1.584417e+00 4.003978e+00 0.000000e+00 4.003978e+00 -2.811326e+00 0.000000e+00 0.000000e+00 0.000000e+00 0.000000e+00 7.130541e+00 -4.802051e-01 0.000000e+00 -4.802051e-01 -1.617729e+00 0.000000e+00 0.000000e+00 0.000000e+00 0.000000e+00 6.978916e+00 -3.234368e+00 0.000000e+00 -3.234368e+00 1.142364e+00 0.000000e+00 0.000000e+00 0.000000e+00 0.000000e+00 5.788954e+00 -4.550041e+00 0.000000e+00 -4.550041e+00 6.038206e+00 0.000000e+00 0.000000e+00 0.000000e+00 0.000000e+00 3.016040e+00 -2.129976e+00 0.000000e+00 -2.129976e+00 1.206986e+01 0.000000e+00 0.000000e+00 0.000000e+00 0.000000e+00 2.244587e+00 3.847391e+00 0.000000e+00 3.847391e+00 1.513466e+01 0.000000e+00 0.000000e+00 0.000000e+00 0.000000e+00 4.182834e+00 1.163689e+01 0.000000e+00 1.163689e+01 1.805048e+01 0.000000e+00 0.000000e+00 0.000000e+00 0.000000e+00 8.569232e+00 1.975156e+01 