<!-- TimeStep 2 Computed 2021-08-30 at 9:26:11 -->
<VTKFile type="UnstructuredGrid" version="0.1" byte_order="LittleEndian">
<UnstructuredGrid>
<Piece NumberOfPoints="658" NumberOfCells="1187">
<Points>
 <DataArray type="Float64" NumberOfComponents="3" format="ascii"> 3.225000e-02 1.380000e-02 0.000000e+00 3.850000e-02 2.000000e-03 0.000000e+00 1.790000e-02 2.000000e-03 0.000000e+00 3.850000e-02 3.000000e-02 0.000000e+00 1.610000e-02 5.000000e-04 0.000000e+00 -2.400000e-02 3.000000e-02 0.000000e+00 0.000000e+00 0.000000e+00 0.000000e+00 -2.400000e-02 0.000000e+00 0.000000e+00 3.209060e-02 1.520260e-02 0.000000e+00 3.166140e-02 1.644790e-02 0.000000e+00 3.086510e-02 1.772340e-02 0.000000e+00 2.972250e-02 1.882050e-02 0.000000e+00 2.860520e-02 1.948120e-02 0.000000e+00 2.719700e-02 1.993430e-02 0.000000e+00 2.590380e-02 2.004930e-02 0.000000e+00 2.457020e-02 1.988430e-02 0.000000e+00 2.332460e-02 1.944840e-02 0.000000e+00 2.208010e-02 1.866800e-02 0.000000e+00 2.105550e-02 1.762290e-02 0.000000e+00 2.030070e-02 1.636520e-02 0.000000e+00 1.988720e-02 1.510250e-02 0.000000e+00 1.975010e-02 1.376650e-02 0.000000e+00 1.990830e-02 1.240220e-02 0.000000e+00 2.036540e-02 1.109550e-02 0.000000e+00 2.111820e-02 9.897330e-03 0.000000e+00 2.206020e-02 8.948140e-03 0.000000e+00 2.327140e-02 8.177090e-03 0.000000e+00 2.473380e-02 7.679600e-03 0.000000e+00 2.609570e-02 7.550730e-03 0.000000e+00 2.739940e-02 7.708680e-03 0.000000e+00 2.878200e-02 8.203300e-03 0.000000e+00 2.990320e-02 8.918690e-03 0.000000e+00 3.088920e-02 9.906670e-03 0.000000e+00 3.160900e-02 1.104290e-02 0.000000e+00 3.210220e-02 1.244870e-02 0.000000e+00 -2.400000e-02 2.335620e-02 0.000000e+00 -2.400000e-02 1.701100e-02 0.000000e+00 -2.400000e-02 1.072240e-02 0.000000e+00 -2.400000e-02 4.857510e-03 0.000000e+00 2.555380e-03 7.935950e-05 0.000000e+00 4.875910e-03 1.514260e-04 0.000000e+00 6.963700e-03 2.162640e-04 0.000000e+00 8.859870e-03 2.751510e-04 0.000000e+00 1.057630e-02 3.284580e-04 0.000000e+00 1.216970e-02 3.779410e-04 0.000000e+00 1.361520e-02 4.228320e-04 0.000000e+00 1.491400e-02 4.631670e-04 0.000000e+00 3.513720e-02 3.000000e-02 0.000000e+00 3.240430e-02 3.000000e-02 0.000000e+00 2.925060e-02 3.000000e-02 0.000000e+00 2.634890e-02 3.000000e-02 0.000000e+00 2.370540e-02 3.000000e-02 0.000000e+00 2.076670e-02 3.000000e-02 0.000000e+00 1.724780e-02 3.000000e-02 0.000000e+00 1.387080e-02 3.000000e-02 0.000000e+00 1.012770e-02 3.000000e-02 0.000000e+00 5.994200e-03 3.000000e-02 0.000000e+00 1.449760e-03 3.000000e-02 0.000000e+00 -3.587440e-03 3.000000e-02 0.000000e+00 -1.004840e-02 3.000000e-02 0.000000e+00 -1.697880e-02 3.000000e-02 0.000000e+00 1.699120e-02 1.242700e-03 0.000000e+00 3.850000e-02 5.026050e-03 0.000000e+00 3.850000e-02 7.576210e-03 0.000000e+00 3.850000e-02 9.994300e-03 0.000000e+00 3.850000e-02 1.226100e-02 0.000000e+00 3.850000e-02 1.414740e-02 0.000000e+00 3.850000e-02 1.624580e-02 0.000000e+00 3.850000e-02 1.834310e-02 0.000000e+00 3.850000e-02 2.066490e-02 0.000000e+00 3.850000e-02 2.323650e-02 0.000000e+00 3.850000e-02 2.633950e-02 0.000000e+00 1.914730e-02 2.000000e-03 0.000000e+00 2.068130e-02 2.000000e-03 0.000000e+00 2.253900e-02 2.000000e-03 0.000000e+00 2.480250e-02 2.000000e-03 0.000000e+00 2.727520e-02 2.000000e-03 0.000000e+00 3.001300e-02 2.000000e-03 0.000000e+00 3.284600e-02 2.000000e-03 0.000000e+00 3.556410e-02 2.000000e-03 0.000000e+00 -2.352000e-02 0.000000e+00 0.000000e+00 -2.304000e-02 0.000000e+00 0.000000e+00 -2.256000e-02 0.000000e+00 0.000000e+00 -2.208000e-02 0.000000e+00 0.000000e+00 -2.160000e-02 0.000000e+00 0.000000e+00 -2.112000e-02 0.000000e+00 0.000000e+00 -2.064000e-02 0.000000e+00 0.000000e+00 -2.016000e-02 0.000000e+00 0.000000e+00 -1.968000e-02 0.000000e+00 0.000000e+00 -1.920000e-02 0.000000e+00 0.000000e+00 -1.872000e-02 0.000000e+00 0.000000e+00 -1.824000e-02 0.000000e+00 0.000000e+00 -1.776000e-02 0.000000e+00 0.000000e+00 -1.728000e-02 0.000000e+00 0.000000e+00 -1.680000e-02 0.000000e+00 0.000000e+00 -1.632000e-02 0.000000e+00 0.000000e+00 -1.584000e-02 0.000000e+00 0.000000e+00 -1.536000e-02 0.000000e+00 0.000000e+00 -1.488000e-02 0.000000e+00 0.000000e+00 -1.440000e-02 0.000000e+00 0.000000e+00 -1.392000e-02 0.000000e+00 0.000000e+00 -1.344000e-02 0.000000e+00 0.000000e+00 -1.296000e-02 0.000000e+00 0.000000e+00 -1.248000e-02 0.000000e+00 0.000000e+00 -1.200000e-02 0.000000e+00 0.000000e+00 -1.152000e-02 0.000000e+00 0.000000e+00 -1.104000e-02 0.000000e+00 0.000000e+00 -1.056000e-02 0.000000e+00 0.000000e+00 -1.008000e-02 0.000000e+00 0.000000e+00 -9.600000e-03 0.000000e+00 0.000000e+00 -9.120000e-03 0.000000e+00 0.000000e+00 -8.640000e-03 0.000000e+00 0.000000e+00 -8.160000e-03 0.000000e+00 0.000000e+00 -7.680000e-03 0.000000e+00 0.000000e+00 -7.200000e-03 0.000000e+00 0.000000e+00 -6.720000e-03 0.000000e+00 0.000000e+00 -6.240000e-03 0.000000e+00 0.000000e+00 -5.760000e-03 0.000000e+00 0.000000e+00 -5.280000e-03 0.000000e+00 0.000000e+00 -4.800000e-03 0.000000e+00 0.000000e+00 -4.320000e-03 0.000000e+00 0.000000e+00 -3.840000e-03 0.000000e+00 0.000000e+00 -3.360000e-03 0.000000e+00 0.000000e+00 -2.880000e-03 0.000000e+00 0.000000e+00 -2.400000e-03 0.000000e+00 0.000000e+00 -1.920000e-03 0.000000e+00 0.000000e+00 -1.440000e-03 0.000000e+00 0.000000e+00 -9.600000e-04 0.000000e+00 0.000000e+00 -4.800000e-04 0.000000e+00 0.000000e+00 -2.340000e-02 5.208130e-04 0.000000e+00 -2.232960e-02 4.618260e-04 0.000000e+00 -2.136950e-02 4.810430e-04 0.000000e+00 -2.041540e-02 4.927590e-04 0.000000e+00 -1.945300e-02 4.966680e-04 0.000000e+00 -1.848070e-02 4.958900e-04 0.000000e+00 -1.751710e-02 4.691530e-04 0.000000e+00 -1.656600e-02 4.678350e-04 0.000000e+00 -1.561650e-02 4.775930e-04 0.000000e+00 -1.465390e-02 4.891080e-04 0.000000e+00 -1.370270e-02 4.971550e-04 0.000000e+00 -1.272340e-02 4.842530e-04 0.000000e+00 -1.178010e-02 4.967790e-04 0.000000e+00 -1.080540e-02 4.845440e-04 0.000000e+00 -9.864580e-03 4.765300e-04 0.000000e+00 -8.865750e-03 4.840670e-04 0.000000e+00 -7.905730e-03 5.011730e-04 0.000000e+00 -6.950840e-03 4.922920e-04 0.000000e+00 -6.019280e-03 4.246020e-04 0.000000e+00 -5.025350e-03 4.728720e-04 0.000000e+00 -4.065420e-03 4.835660e-04 0.000000e+00 -3.128960e-03 4.451670e-04 0.000000e+00 -2.171430e-03 4.762830e-04 0.000000e+00 -1.187460e-03 5.232410e-04 0.000000e+00 -1.169200e-04 6.148440e-04 0.000000e+00 5.857940e-03 1.696520e-03 0.000000e+00 9.466970e-03 1.890640e-03 0.000000e+00 1.285950e-02 1.842540e-03 0.000000e+00 1.567970e-02 1.589100e-03 0.000000e+00 1.654450e-02 2.586790e-03 0.000000e+00 1.870650e-02 3.039180e-03 0.000000e+00 2.161510e-02 3.508730e-03 0.000000e+00 2.644280e-02 3.572340e-03 0.000000e+00 3.127720e-02 3.918880e-03 0.000000e+00 3.629790e-02 5.896780e-03 0.000000e+00 3.653930e-02 1.078160e-02 0.000000e+00 3.658270e-02 1.517420e-02 0.000000e+00 3.649690e-02 1.966800e-02 0.000000e+00 3.564140e-02 2.453050e-02 0.000000e+00 3.471780e-02 2.738170e-02 0.000000e+00 3.097490e-02 2.763820e-02 0.000000e+00 2.500050e-02 2.778260e-02 0.000000e+00 1.911390e-02 2.734780e-02 0.000000e+00 1.195580e-02 2.690690e-02 0.000000e+00 3.452650e-03 2.633780e-02 0.000000e+00 -7.324260e-03 2.613160e-02 0.000000e+00 -1.270890e-02 2.610200e-02 0.000000e+00 -1.842590e-02 2.481480e-02 0.000000e+00 -2.078380e-02 2.023790e-02 0.000000e+00 3.351880e-02 1.299650e-02 0.000000e+00 3.321610e-02 1.125410e-02 0.000000e+00 3.240270e-02 9.708370e-03 0.000000e+00 3.124550e-02 8.531210e-03 0.000000e+00 2.994440e-02 7.484320e-03 0.000000e+00 2.846950e-02 6.692040e-03 0.000000e+00 2.682410e-02 6.398290e-03 0.000000e+00 2.522120e-02 6.457060e-03 0.000000e+00 2.358330e-02 6.768300e-03 0.000000e+00 2.202220e-02 7.395140e-03 0.000000e+00 2.065990e-02 8.488800e-03 0.000000e+00 1.961080e-02 9.755280e-03 0.000000e+00 1.888420e-02 1.131290e-02 0.000000e+00 1.849530e-02 1.294410e-02 0.000000e+00 1.849360e-02 1.454180e-02 0.000000e+00 1.881370e-02 1.618350e-02 0.000000e+00 1.956540e-02 1.777080e-02 0.000000e+00 2.064850e-02 1.913430e-02 0.000000e+00 2.199860e-02 2.018520e-02 0.000000e+00 2.351120e-02 2.085000e-02 0.000000e+00 2.512340e-02 2.121420e-02 0.000000e+00 2.667170e-02 2.118690e-02 0.000000e+00 2.831550e-02 2.085570e-02 0.000000e+00 2.991870e-02 2.021780e-02 0.000000e+00 3.132950e-02 1.919600e-02 0.000000e+00 3.236480e-02 1.776990e-02 0.000000e+00 3.311520e-02 1.621600e-02 0.000000e+00 3.347840e-02 1.467100e-02 0.000000e+00 -2.284400e-02 4.893670e-04 0.000000e+00 -2.185120e-02 4.651270e-04 0.000000e+00 -2.087950e-02 4.954800e-04 0.000000e+00 -1.992730e-02 4.905700e-04 0.000000e+00 -1.896440e-02 5.146960e-04 0.000000e+00 -1.799490e-02 4.750100e-04 0.000000e+00 -1.705020e-02 4.652250e-04 0.000000e+00 -1.607800e-02 4.701420e-04 0.000000e+00 -1.512950e-02 4.852050e-04 0.000000e+00 -1.419440e-02 4.972290e-04 0.000000e+00 -1.320410e-02 4.845360e-04 0.000000e+00 -1.225140e-02 4.886650e-04 0.000000e+00 -1.130790e-02 4.924130e-04 0.000000e+00 -1.033120e-02 4.774360e-04 0.000000e+00 -9.365120e-03 4.775410e-04 0.000000e+00 -8.389860e-03 4.925440e-04 0.000000e+00 -7.442720e-03 5.065380e-04 0.000000e+00 -6.466490e-03 4.625650e-04 0.000000e+00 -5.527350e-03 4.204680e-04 0.000000e+00 -4.553670e-03 4.855930e-04 0.000000e+00 -3.599350e-03 4.758930e-04 0.000000e+00 -2.637330e-03 4.397930e-04 0.000000e+00 -1.676010e-03 4.983490e-04 0.000000e+00 -6.774770e-04 5.559640e-04 0.000000e+00 4.116400e-03 1.544720e-03 0.000000e+00 7.691210e-03 1.775840e-03 0.000000e+00 1.126030e-02 1.890640e-03 0.000000e+00 1.429970e-02 1.759220e-03 0.000000e+00 1.756480e-02 3.582850e-03 0.000000e+00 1.998660e-02 3.276390e-03 0.000000e+00 2.393340e-02 3.733490e-03 0.000000e+00 2.887110e-02 3.696960e-03 0.000000e+00 3.388150e-02 4.409110e-03 0.000000e+00 3.644040e-02 8.532590e-03 0.000000e+00 3.666220e-02 1.303330e-02 0.000000e+00 3.624470e-02 1.730480e-02 0.000000e+00 3.612270e-02 2.204020e-02 0.000000e+00 1.561920e-02 2.705730e-02 0.000000e+00 2.783560e-02 2.771860e-02 0.000000e+00 2.222260e-02 2.767250e-02 0.000000e+00 7.971510e-03 2.667810e-02 
[...]
<PointData Scalars="" Vectors="DisplacementVector " Tensors="IST_StressTensor IST_StrainTensor " >
 <DataArray type="Float64" Name="DisplacementVector" NumberOfComponents="3" format="ascii"> -1.153423e-06 8.961261e-06 0.000000e+00 1.484395e-06 1.037160e-05 0.000000e+00 1.469731e-06 5.434092e-06 0.000000e+00 -4.807956e-06 1.037398e-05 0.000000e+00 1.786657e-06 4.984293e-06 0.000000e+00 -3.273213e-06 -1.434122e-06 0.000000e+00 1.281935e-06 0.000000e+00 0.000000e+00 0.000000e+00 0.000000e+00 0.000000e+00 -1.455319e-06 8.923429e-06 0.000000e+00 -1.724833e-06 8.826130e-06 0.000000e+00 -2.003744e-06 8.645955e-06 0.000000e+00 -2.248076e-06 8.385088e-06 0.000000e+00 -2.400138e-06 8.124520e-06 0.000000e+00 -2.508599e-06 7.788583e-06 0.000000e+00 -2.541153e-06 7.472480e-06 0.000000e+00 -2.510784e-06 7.139268e-06 0.000000e+00 -2.419803e-06 6.824011e-06 0.000000e+00 -2.252946e-06 6.503623e-06 0.000000e+00 -2.027142e-06 6.235340e-06 0.000000e+00 -1.753895e-06 6.035334e-06 0.000000e+00 -1.477351e-06 5.925561e-06 0.000000e+00 -1.182826e-06 5.891082e-06 0.000000e+00 -8.797421e-07 5.936959e-06 0.000000e+00 -5.860295e-07 6.063715e-06 0.000000e+00 -3.127446e-07 6.269274e-06 0.000000e+00 -9.298071e-08 6.522856e-06 0.000000e+00 8.677082e-08 6.842831e-06 0.000000e+00 1.999574e-07 7.217470e-06 0.000000e+00 2.279031e-07 7.557655e-06 0.000000e+00 1.893942e-07 7.872010e-06 0.000000e+00 7.336564e-08 8.196677e-06 0.000000e+00 -8.943247e-08 8.451495e-06 0.000000e+00 -3.091448e-07 8.670070e-06 0.000000e+00 -5.580370e-07 8.826537e-06 0.000000e+00 -8.625579e-07 8.931629e-06 0.000000e+00 -2.415438e-06 -1.419921e-06 0.000000e+00 -1.517189e-06 -1.308029e-06 0.000000e+00 -6.876069e-07 -9.969896e-07 0.000000e+00 -1.567910e-07 -5.082582e-07 0.000000e+00 1.521389e-06 1.401411e-06 0.000000e+00 1.576186e-06 2.080281e-06 0.000000e+00 1.629546e-06 2.649115e-06 0.000000e+00 1.675783e-06 3.143286e-06 0.000000e+00 1.714146e-06 3.583364e-06 0.000000e+00 1.744872e-06 3.989918e-06 0.000000e+00 1.767363e-06 4.358122e-06 0.000000e+00 1.781555e-06 4.687949e-06 0.000000e+00 -4.809723e-06 9.601023e-06 0.000000e+00 -4.813740e-06 8.970816e-06 0.000000e+00 -4.821671e-06 8.233753e-06 0.000000e+00 -4.826045e-06 7.540336e-06 0.000000e+00 -4.820315e-06 6.893760e-06 0.000000e+00 -4.794085e-06 6.162794e-06 0.000000e+00 -4.727680e-06 5.287027e-06 0.000000e+00 -4.626624e-06 4.463942e-06 0.000000e+00 -4.472750e-06 3.591546e-06 0.000000e+00 -4.261755e-06 2.702809e-06 0.000000e+00 -4.001302e-06 1.838719e-06 0.000000e+00 -3.719340e-06 1.033088e-06 0.000000e+00 -3.431903e-06 1.967733e-07 0.000000e+00 -3.290598e-06 -5.788258e-07 0.000000e+00 1.621311e-06 5.205656e-06 0.000000e+00 8.026334e-07 1.037054e-05 0.000000e+00 2.288200e-07 1.036574e-05 0.000000e+00 -3.111815e-07 1.035798e-05 0.000000e+00 -8.115061e-07 1.035108e-05 0.000000e+00 -1.224811e-06 1.034793e-05 0.000000e+00 -1.684641e-06 1.034863e-05 0.000000e+00 -2.148044e-06 1.035274e-05 0.000000e+00 -2.667579e-06 1.035979e-05 0.000000e+00 -3.251549e-06 1.036703e-05 0.000000e+00 -3.964255e-06 1.037249e-05 0.000000e+00 1.505797e-06 5.763902e-06 0.000000e+00 1.530690e-06 6.165708e-06 0.000000e+00 1.543940e-06 6.646788e-06 0.000000e+00 1.542647e-06 7.219153e-06 0.000000e+00 1.527037e-06 7.823558e-06 0.000000e+00 1.506164e-06 8.463825e-06 0.000000e+00 1.491128e-06 9.105434e-06 0.000000e+00 1.485312e-06 9.713758e-06 0.000000e+00 4.398771e-09 0.000000e+00 0.000000e+00 1.225737e-08 0.000000e+00 0.000000e+00 2.175669e-08 0.000000e+00 0.000000e+00 3.202403e-08 0.000000e+00 0.000000e+00 4.277777e-08 0.000000e+00 0.000000e+00 5.374325e-08 0.000000e+00 0.000000e+00 6.473742e-08 0.000000e+00 0.000000e+00 7.577967e-08 0.000000e+00 0.000000e+00 8.683519e-08 0.000000e+00 0.000000e+00 9.797995e-08 0.000000e+00 0.000000e+00 1.091802e-07 0.000000e+00 0.000000e+00 1.205076e-07 0.000000e+00 0.000000e+00 1.319963e-07 0.000000e+00 0.000000e+00 1.437557e-07 0.000000e+00 0.000000e+00 1.558447e-07 0.000000e+00 0.000000e+00 1.681905e-07 0.000000e+00 0.000000e+00 1.808806e-07 0.000000e+00 0.000000e+00 1.940178e-07 0.000000e+00 0.000000e+00 2.075844e-07 0.000000e+00 0.000000e+00 2.216830e-07 0.000000e+00 0.000000e+00 2.363170e-07 0.000000e+00 0.000000e+00 2.514704e-07 0.000000e+00 0.000000e+00 2.672486e-07 0.000000e+00 0.000000e+00 2.837362e-07 0.000000e+00 0.000000e+00 3.009608e-07 0.000000e+00 0.000000e+00 3.189574e-07 0.000000e+00 0.000000e+00 3.377649e-07 0.000000e+00 0.000000e+00 3.573503e-07 0.000000e+00 0.000000e+00 3.778151e-07 0.000000e+00 0.000000e+00 3.992916e-07 0.000000e+00 0.000000e+00 4.217580e-07 0.000000e+00 0.000000e+00 4.451907e-07 0.000000e+00 0.000000e+00 4.696758e-07 0.000000e+00 0.000000e+00 4.953259e-07 0.000000e+00 0.000000e+00 5.223314e-07 0.000000e+00 0.000000e+00 5.507096e-07 0.000000e+00 0.000000e+00 5.804420e-07 0.000000e+00 0.000000e+00 6.117567e-07 0.000000e+00 0.000000e+00 6.449020e-07 0.000000e+00 0.000000e+00 6.798131e-07 0.000000e+00 0.000000e+00 7.168937e-07 0.000000e+00 0.000000e+00 7.564139e-07 0.000000e+00 0.000000e+00 7.988943e-07 0.000000e+00 0.000000e+00 8.447602e-07 0.000000e+00 0.000000e+00 8.949930e-07 0.000000e+00 0.000000e+00 9.508177e-07 0.000000e+00 0.000000e+00 1.014280e-06 0.000000e+00 0.000000e+00 1.089097e-06 0.000000e+00 0.000000e+00 1.179491e-06 0.000000e+00 0.000000e+00 3.975014e-12 -4.711448e-08 0.000000e+00 2.412615e-08 -3.827418e-08 0.000000e+00 4.609725e-08 -3.609418e-08 0.000000e+00 6.812751e-08 -3.313312e-08 0.000000e+00 9.032941e-08 -2.985717e-08 0.000000e+00 1.130150e-07 -2.638965e-08 0.000000e+00 1.363275e-07 -2.209839e-08 0.000000e+00 1.601864e-07 -1.936098e-08 0.000000e+00 1.852029e-07 -1.722960e-08 0.000000e+00 2.122699e-07 -1.521014e-08 0.000000e+00 2.410339e-07 -1.294572e-08 0.000000e+00 2.732549e-07 -1.041488e-08 0.000000e+00 3.068350e-07 -8.499025e-09 0.000000e+00 3.448846e-07 -5.952049e-09 0.000000e+00 3.849208e-07 -3.678665e-09 0.000000e+00 4.312769e-07 -1.157685e-09 0.000000e+00 4.798429e-07 1.641520e-09 0.000000e+00 5.332869e-07 4.340389e-09 0.000000e+00 5.915124e-07 6.814595e-09 0.000000e+00 6.584899e-07 1.131052e-08 0.000000e+00 7.313186e-07 1.610191e-08 0.000000e+00 8.130438e-07 2.041854e-08 0.000000e+00 9.068407e-07 3.007702e-08 0.000000e+00 1.014291e-06 5.037589e-08 0.000000e+00 1.109682e-06 1.377906e-07 0.000000e+00 1.195154e-06 2.334053e-06 0.000000e+00 1.287929e-06 3.283775e-06 0.000000e+00 1.397906e-06 4.155153e-06 0.000000e+00 1.519817e-06 4.875977e-06 0.000000e+00 1.302492e-06 5.088151e-06 0.000000e+00 1.236221e-06 5.641549e-06 0.000000e+00 1.160526e-06 6.405137e-06 0.000000e+00 1.155716e-06 7.626078e-06 0.000000e+00 1.059401e-06 8.754369e-06 0.000000e+00 6.057215e-07 9.876364e-06 0.000000e+00 -4.876483e-07 9.920429e-06 0.000000e+00 -1.449562e-06 9.923613e-06 0.000000e+00 -2.441983e-06 9.906827e-06 0.000000e+00 -3.546733e-06 9.716518e-06 0.000000e+00 -4.204606e-06 9.505432e-06 0.000000e+00 -4.265899e-06 8.640416e-06 0.000000e+00 -4.293121e-06 7.211230e-06 0.000000e+00 -4.133462e-06 5.737694e-06 0.000000e+00 -3.865737e-06 3.977066e-06 0.000000e+00 -3.442644e-06 2.145933e-06 0.000000e+00 -2.998029e-06 4.824743e-07 0.000000e+00 -2.858397e-06 -1.281438e-07 0.000000e+00 -2.613796e-06 -7.462327e-07 0.000000e+00 -1.959346e-06 -9.761499e-07 0.000000e+00 -9.777946e-07 9.244407e-06 0.000000e+00 -5.983578e-07 9.181149e-06 0.000000e+00 -2.591402e-07 9.004530e-06 0.000000e+00 2.090160e-09 8.749476e-06 0.000000e+00 2.389948e-07 8.457403e-06 0.000000e+00 4.223919e-07 8.116513e-06 0.000000e+00 4.920891e-07 7.726354e-06 0.000000e+00 4.796375e-07 7.333106e-06 0.000000e+00 4.054301e-07 6.917417e-06 0.000000e+00 2.546341e-07 6.510576e-06 0.000000e+00 -3.281502e-09 6.148114e-06 0.000000e+00 -2.969690e-07 5.865414e-06 0.000000e+00 -6.485994e-07 5.667133e-06 0.000000e+00 -1.009247e-06 5.559654e-06 0.000000e+00 -1.357027e-06 5.556806e-06 0.000000e+00 -1.711312e-06 5.641049e-06 0.000000e+00 -2.053259e-06 5.839638e-06 0.000000e+00 -2.348132e-06 6.123279e-06 0.000000e+00 -2.577027e-06 6.472863e-06 0.000000e+00 -2.722596e-06 6.859440e-06 0.000000e+00 -2.801103e-06 7.264374e-06 0.000000e+00 -2.790787e-06 7.646739e-06 0.000000e+00 -2.710952e-06 8.042532e-06 0.000000e+00 -2.563130e-06 8.419101e-06 0.000000e+00 -2.332348e-06 8.744085e-06 0.000000e+00 -2.015966e-06 8.980033e-06 0.000000e+00 -1.675844e-06 9.149749e-06 0.000000e+00 -1.340461e-06 9.232524e-06 0.000000e+00 1.232112e-08 -4.262583e-08 0.000000e+00 3.504890e-08 -3.673824e-08 0.000000e+00 5.735522e-08 -3.515756e-08 0.000000e+00 7.940313e-08 -3.116724e-08 0.000000e+00 1.015438e-07 -2.911230e-08 0.000000e+00 1.247060e-07 -2.373606e-08 0.000000e+00 1.479171e-07 -2.065919e-08 0.000000e+00 1.728548e-07 -1.814018e-08 0.000000e+00 1.986316e-07 -1.623094e-08 0.000000e+00 2.258755e-07 -1.424744e-08 0.000000e+00 2.571326e-07 -1.147310e-08 0.000000e+00 2.897207e-07 -9.442763e-09 0.000000e+00 3.248510e-07 -7.309821e-09 0.000000e+00 3.646616e-07 -4.712072e-09 0.000000e+00 4.075865e-07 -2.504127e-09 0.000000e+00 4.548094e-07 2.332318e-10 0.000000e+00 5.049837e-07 2.956710e-09 0.000000e+00 5.628098e-07 5.763778e-09 0.000000e+00 6.242385e-07 8.211170e-09 0.000000e+00 6.930869e-07 1.374675e-08 0.000000e+00 7.702816e-07 1.843261e-08 0.000000e+00 8.604737e-07 2.362375e-08 0.000000e+00 9.599558e-07 3.818731e-08 0.000000e+00 1.068176e-06 7.444325e-08 0.000000e+00 1.144092e-06 1.841722e-06 0.000000e+00 1.252673e-06 2.823479e-06 0.000000e+00 1.343366e-06 3.744963e-06 0.000000e+00 1.451551e-06 4.524100e-06 0.000000e+00 1.085804e-06 5.344326e-06 0.000000e+00 1.199059e-06 5.978314e-06 0.000000e+00 1.118304e-06 7.002288e-06 0.000000e+00 1.118176e-06 8.202893e-06 0.000000e+00 9.430202e-07 9.338528e-06 0.000000e+00 1.235505e-08 9.903656e-06 0.000000e+00 -9.821183e-07 9.943292e-06 0.000000e+00 -1.916669e-06 9.848526e-06 0.000000e+00 -2.977235e-06 9.824559e-06 0.000000e+00 -3.998616e-06 4.863961e-06 0.000000e+00 -4.284708e-06 7.899016e-06 0.000000e+00 -4.248752e-06 6.520868e-06 0.000000e+00 -3.683008e-06 3.071365e-06 0.000000e+00 -3.140967e-06 1.285047e-06 0.000000e+00 -1.375654e-06 -8.875108e-07 0.000000e+00 4.469693e-08 -7.662264e-08 0.000000e+00 6.760190e-08 -6.679234e-08 0.000000e+00 1.481866e-07 -4.250645e-08 0.000000e+00 1.251723e-07 -4.628579e-08 0.000000e+00 5.571807e-08 -7.308671e-08 0.000000e+00 1.374216e-07 -4.280134e-08 0.000000e+00 1.129679e-07 -5.321188e-08 0.000000e+00 2.581253e-07 -2.234800e-08 0.000000e+00 2.254528e-07 -2.922497e-08 0.000000e+00 8.462057e-07 5.681022e-08 0.000000e+00 2.418396e-07 -2.524900e-08 0.000000e+00 2.111555e-07 -3.131850e-08 0.000000e+00 3.255135e-07 -1.429961e-08 0.000000e+00 3.667403e-07 -8.367010e-09 0.000000e+00 3.466300e-07 -1.122467e-08 0.000000e+00 3.065091e-07 -1.690126e-08 0.000000e+00 4.329238e-07 -7.606940e-10 0.000000e+00 5.684590e-07 1.424059e-08 0.000000e+00 4.817564e-07 5.103734e-09 0.000000e+00 5.374132e-07 1.183701e-08 0.000000e+00 7.708010e-07 4.252118e-08 0.000000e+00 6.899875e-07 3.303380e-08 0.000000e+00 5.090752e-07 8.324946e-09 0.000000e+00 7.303679e-07 3.829732e-08 0.000000e+00 6.550010e-07 2.706017e-08 0.000000e+00 8.145227e-07 4.369335e-08 0.000000e+00 8.808427e-07 3.013330e-06 0.000000e+00 9.683060e-07 2.160744e-07 0.000000e+00 1.000314e-06 3.943390e-06 0.000000e+00 8.453407e-07 2.547564e-06 0.000000e+00 7.856536e-07 2.077724e-06 0.000000e+00 9.539381e-07 1.386415e-07 0.000000e+00 9.297611e-07 3.484921e-06 0.000000e+00 1.048071e-06 1.386714e-06 0.000000e+00 8.066431e-07 6.081861e-06 0.000000e+00 1.174404e-06 4.744179e-06 0.000000e+00 9.066558e-07 5.674060e-06 0.000000e+00 -3.142635e-06 9.247172e-06 0.000000e+00 6.880995e-07 6.569726e-06 0.000000e+00 -2.271020e-06 9.537756e-06 0.000000e+00 -7.448085e-07 9.556160e-06 0.000000e+00 6.636538e-07 8.467917e-06 0.000000e+00 6.065108e-07 8.996870e-06 0.000000e+00 2.331085e-08 -7.476058e-08 0.000000e+00 3.358309e-07 9.464859e-06 0.000000e+00 -2.345026e-07 9.447131e-06 0.000000e+00 -3.683374e-06 6.220110e-06 0.000000e+00 -2.666720e-06 9.408325e-06 0.000000e+00 -3.804712e-06 6.902674e-06 0.000000e+00 -3.443465e-06 5.385377e-06 0.000000e+00 -3.725399e-06 9.002159e-06 0.000000e+00 -3.147530e-06 3.491258e-06 0.000000e+00 -2.453181e-06 7.015874e-07 0.000000e+00 -3.842253e-06 7.515732e-06 0.000000e+00 -3.322096e-06 4.377652e-06 0.000000e+00 -2.395213e-06 1.797915e-07 0.000000e+00 -1.638864e-06 -6.652745e-07 0.000000e+00 -2.289376e-06 -2.858228e-07 0.000000e+00 3.443349e-08 -7.522435e-08 0.000000e+00 4.577315e-07 2.298303e-09 0.000000e+00 1.070600e-06 4.397251e-07 0.000000e+00 -3.765082e-06 8.226876e-06 0.000000e+00 -1.051854e-06 -9.460915e-07 0.000000e+00 1.737889e-07 -3.538294e-08 0.000000e+00 1.224209e-07 9.090357e-06 0.000000e+00 3.364570e-07 8.762507e-06 0.000000e+00 7.848209e-07 7.938659e-06 0.000000e+00 7.139793e-07 7.063528e-06 0.000000e+00 3.840172e-07 6.112450e-06 0.000000e+00 -3.683999e-07 5.423074e-06 0.000000e+00 -1.195046e-06 5.163117e-06 0.000000e+00 -2.011074e-06 5.349585e-06 0.000000e+00 -2.401712e-06 5.651157e-06 0.000000e+00 -2.728279e-06 6.059092e-06 0.000000e+00 -2.949864e-06 6.502048e-06 0.000000e+00 -3.106356e-06 7.450937e-06 0.000000e+00 -3.044667e-06 7.894079e-06 0.000000e+00 -2.938839e-06 8.354001e-06 0.000000e+00 -2.344624e-06 9.141940e-06 0.000000e+00 -1.959032e-06 9.373518e-06 0.000000e+00 1.135231e-06 9.040039e-07 0.000000e+00 7.039851e-07 1.556055e-06 0.000000e+00 -9.811773e-07 -7.236826e-07 0.000000e+00 8.032541e-07 1.102930e-06 0.000000e+00 -3.693959e-09 -9.361452e-08 0.000000e+00 8.947750e-08 -6.233645e-08 0.000000e+00 2.735130e-07 -2.063369e-08 0.000000e+00 1.609298e-07 -3.880292e-08 0.000000e+00 3.885264e-07 -6.134593e-09 0.000000e+00 5.982539e-07 1.496168e-08 0.000000e+00 9.663058e-07 3.681460e-07 0.000000e+00 1.079074e-06 4.350114e-06 0.000000e+00 8.857484e-07 7.322017e-08 0.000000e+00 -2.946046e-06 2.601689e-06 0.000000e+00 9.275253e-07 4.976123e-06 0.000000e+00 -7.355359e-07 -7.725490e-07 0.000000e+00 -1.234623e-06 -6.461736e-07 0.000000e+00 7.903447e-08 -6.270708e-08 0.000000e+00 -2.492052e-06 1.235036e-06 0.000000e+00 8.670547e-07 6.802540e-07 0.000000e+00 -2.080880e-06 -6.165981e-07 0.000000e+00 -1.173485e-06 9.579228e-06 0.000000e+00 1.862247e-07 -3.308387e-08 0.000000e+00 -1.593490e-06 9.520605e-06 0.000000e+00 -2.748268e-06 8.857911e-06 0.000000e+00 -3.079210e-06 6.979922e-06 0.000000e+00 -3.172113e-06 6.062326e-06 0.000000e+00 -1.603664e-06 5.198285e-06 0.000000e+00 -7.801249e-07 5.221268e-06 0.000000e+00 5.830736e-08 5.685777e-06 0.000000e+00 8.103089e-07 7.473287e-06 0.000000e+00 1.049395e-08 -8.192561e-08 0.000000e+00 1.009924e-07 -5.863087e-08 0.000000e+00 1.994085e-07 -3.153202e-08 0.000000e+00 2.897719e-07 -1.903787e-08 0.000000e+00 4.086481e-07 -3.876809e-09 0.000000e+00 6.235276e-07 2.084156e-08 0.000000e+00 9.243874e-07 9.674774e-08 0.000000e+00 -2.744575e-06 1.820764e-06 0.000000e+00 -5.414057e-07 -6.219509e-07 0.000000e+00 -6.854570e-07 -5.959802e-07 0.000000e+00 -4.907218e-07 -7.028993e-07 0.000000e+00 -4.386439e-07 -4.952311e-07 0.000000e+00 -3.666282e-07 -5.360922e-07 0.000000e+00 3.776407e-08 -1.195567e-07 0.000000e+00 2.035706e-07 -4.855686e-08 0.000000e+00 6.340877e-07 4.765525e-08 0.000000e+00 2.993661e-07 -2.460090e-08 0.000000e+00 -2.288499e-06 2.206923e-06 0.000000e+00 5.369275e-07 2.432603e-08 0.000000e+00 5.106952e-07 3.222875e-06 0.000000e+00 1.415170e-07 -6.942261e-08 0.000000e+00 4.731339e-07 2.753160e-06 0.000000e+00 7.043450e-07 5.318143e-06 0.000000e+00 6.768498e-07 4.183474e-06 0.000000e+00 8.383720e-07 4.191566e-07 0.000000e+00 7.821855e-07 4.604677e-06 0.000000e+00 4.535960e-07 2.290216e-06 0.000000e+00 8.417847e-07 2.731880e-07 0.000000e+00 5.763691e-07 3.721963e-06 0.000000e+00 6.432216e-07 8.613163e-07 0.000000e+00 -1.950908e-06 9.127137e-07 0.000000e+00 -3.358916e-06 6.650290e-06 0.000000e+00 -2.466712e-06 3.073362e-06 0.000000e+00 -8.982202e-07 -4.998646e-07 0.000000e+00 7.104728e-08 -1.006988e-07 0.000000e+00 1.092228e-07 -7.755808e-08 0.000000e+00 -1.876408e-06 -3.641021e-08 0.000000e+00 5.192956e-07 5.686615e-06 0.000000e+00 3.874887e-07 1.848936e-06 0.000000e+00 -3.444075e-06 7.203167e-06 0.000000e+00 -1.903984e-06 4.835576e-06 0.000000e+00 -9.839650e-07 4.750844e-06 0.000000e+00 -1.332839e-06 -4.510521e-07 0.000000e+00 -1.779660e-06 -3.782979e-07 0.000000e+00 -8.494525e-08 5.203466e-06 0.000000e+00 -4.393243e-07 4.846048e-06 0.000000e+00 -1.444777e-06 4.754171e-06 0.000000e+00 -2.376392e-06 5.064197e-06 0.000000e+00 -2.839736e-06 5.497123e-06 0.000000e+00 -3.434173e-06 7.715501e-06 0.000000e+00 -3.303429e-06 8.177908e-06 0.000000e+00 -2.569173e-07 -4.191569e-07 0.000000e+00 -5.454972e-07 -4.391391e-07 0.000000e+00 -1.813892e-06 4.016978e-07 0.000000e+00 5.082760e-08 -1.093387e-07 0.000000e+00 3.994276e-07 -3.293888e-09 0.000000e+00 1.908430e-07 -5.070391e-08 0.000000e+00 1.310452e-07 -6.806473e-08 0.000000e+00 2.520563e-07 -3.305369e-08 0.000000e+00 5.040724e-07 1.802313e-08 0.000000e+00 6.026146e-07 3.728608e-08 0.000000e+00 8.429321e-07 1.908293e-07 0.000000e+00 7.110717e-07 6.969805e-08 0.000000e+00 3.421866e-07 -1.512563e-08 0.000000e+00 4.780929e-07 1.161844e-08 0.000000e+00 2.394108e-07 -3.489719e-08 0.000000e+00 7.671231e-07 7.682793e-08 0.000000e+00 6.362710e-08 -9.691485e-08 0.000000e+00 5.157501e-07 1.170458e-06 0.000000e+00 6.709006e-07 5.891962e-08 0.000000e+00 -2.658704e-06 3.931574e-06 0.000000e+00 8.105872e-08 -9.937486e-08 0.000000e+00 4.518608e-07 6.378881e-09 0.000000e+00 -3.277432e-06 8.661536e-06 0.000000e+00 5.780058e-07 2.580089e-08 0.000000e+00 2.972360e-07 5.276366e-06 0.000000e+00 2.817874e-07 -2.826112e-08 0.000000e+00 4.253487e-07 1.669855e-09 0.000000e+00 -2.249217e-06 4.410464e-06 0.000000e+00 1.231728e-07 -6.500080e-08 0.000000e+00 2.537380e-08 -1.246268e-07 0.000000e+00 1.697320e-07 -5.374513e-08 0.000000e+00 9.394378e-08 -9.134101e-08 0.000000e+00 -2.099569e-06 1.502723e-06 0.000000e+00 3.638146e-07 -1.072727e-08 0.000000e+00 7.990393e-07 1.045482e-07 0.000000e+00 2.955496e-07 1.460605e-06 0.000000e+00 -1.204123e-08 -1.449067e-07 0.000000e+00 1.591983e-07 -5.496549e-08 0.000000e+00 1.904534e-08 -1.130911e-07 0.000000e+00 -2.146715e-07 -4.395223e-07 0.000000e+00 7.334248e-09 -1.181087e-07 0.000000e+00 3.206606e-07 -1.955718e-08 0.000000e+00 2.203750e-07 -4.283259e-08 0.000000e+00 -2.815451e-06 4.748443e-06 0.000000e+00 -3.139958e-07 -5.547136e-07 0.000000e+00 -3.083489e-07 -3.776933e-07 0.000000e+00 -1.718261e-07 -4.540718e-07 0.000000e+00 -1.070908e-07 -3.498772e-07 0.000000e+00 -8.582172e-08 -3.350794e-07 0.000000e+00 -3.740033e-08 -2.637059e-07 0.000000e+00 -3.440227e-08 -2.534807e-07 0.000000e+00 -4.431405e-08 -2.689606e-07 0.000000e+00 7.392735e-09 -1.837392e-07 0.000000e+00 -8.210528e-08 -3.442203e-07 0.000000e+00 -3.341897e-08 -2.203824e-07 0.000000e+00 -1.271536e-07 -3.418206e-07 0.000000e+00 -1.811936e-09 -1.693825e-07 0.000000e+00 1.826700e-07 -4.826950e-08 0.000000e+00 2.669772e-07 -3.083672e-08 0.000000e+00 -1.786401e-06 2.644752e-06 0.000000e+00 1.462676e-07 -7.689074e-08 0.000000e+00 3.784395e-07 -7.974154e-09 0.000000e+00 8.262434e-07 1.365854e-07 0.000000e+00 5.243499e-07 4.892533e-06 0.000000e+00 -6.531119e-07 -3.359350e-07 0.000000e+00 1.288478e-07 3.454167e-06 0.000000e+00 7.104688e-07 4.361785e-07 0.000000e+00 -1.986990e-06 3.596944e-06 0.000000e+00 -1.022341e-06 -3.079253e-07 0.000000e+00 6.662402e-07 1.165156e-07 0.000000e+00 7.240668e-07 6.071124e-07 0.000000e+00 6.098177e-08 4.814322e-06 0.000000e+00 3.019120e-08 -1.527378e-07 0.000000e+00 -3.480226e-07 -6.365932e-07 0.000000e+00 1.359080e-07 2.072314e-06 0.000000e+00 4.290126e-07 8.792022e-07 0.000000e+00 5.556492e-09 -2.025422e-07 0.000000e+00 -1.439079e-06 -1.979900e-07 0.000000e+00 -7.687903e-07 4.297147e-06 0.000000e+00 1.711519e-08 -1.946110e-07 0.000000e+00 4.709264e-08 2.942498e-06 0.000000e+00 2.390399e-07 -4.332093e-08 0.000000e+00 2.717294e-07 1.135509e-06 0.000000e+00 1.622906e-07 -7.097900e-08 0.000000e+00 -1.644877e-06 1.814386e-06 0.000000e+00 5.660289e-07 5.995554e-08 0.000000e+00 5.702779e-07 6.352366e-07 0.000000e+00 4.565374e-07 2.328107e-08 0.000000e+00 3.812117e-07