<VTKFile type="UnstructuredGrid" version="0.1" byte_order="LittleEndian">
<UnstructuredGrid>
<Piece NumberOfPoints="1187" NumberOfCells="1187">
<Points>
 <DataArray type="Float64" NumberOfComponents="3" format="ascii"> -2.332000e-02 1.736043e-04 0.000000e+00 -2.232320e-02 1.539420e-04 0.000000e+00 -2.136317e-02 1.603477e-04 0.000000e+00 -2.040513e-02 1.642530e-04 0.000000e+00 -1.944433e-02 1.655560e-04 0.000000e+00 -1.848023e-02 1.652967e-04 0.000000e+00 -1.751903e-02 1.563843e-04 0.000000e+00 -1.656200e-02 1.559450e-04 0.000000e+00 -1.560550e-02 1.591977e-04 0.000000e+00 -1.464463e-02 1.630360e-04 0.000000e+00 -1.368757e-02 1.657183e-04 0.000000e+00 -1.272113e-02 1.614177e-04 0.000000e+00 -1.176670e-02 1.655930e-04 0.000000e+00 -1.080180e-02 1.615147e-04 0.000000e+00 -9.848193e-03 1.588433e-04 0.000000e+00 -8.875250e-03 1.613557e-04 0.000000e+00 -7.915243e-03 1.670577e-04 0.000000e+00 -6.956947e-03 1.640973e-04 0.000000e+00 -6.006427e-03 1.415340e-04 0.000000e+00 -5.035117e-03 1.576240e-04 0.000000e+00 -4.075140e-03 1.611887e-04 0.000000e+00 -3.122987e-03 1.483890e-04 0.000000e+00 -2.163810e-03 1.587610e-04 0.000000e+00 -1.195820e-03 1.744137e-04 0.000000e+00 -1.989733e-04 2.049480e-04 0.000000e+00 5.899183e-03 6.880700e-04 0.000000e+00 9.634380e-03 8.314163e-04 0.000000e+00 1.288147e-02 8.811043e-04 0.000000e+00 1.556457e-02 8.507557e-04 0.000000e+00 1.625697e-02 1.110600e-03 0.000000e+00 1.714523e-02 1.943163e-03 0.000000e+00 1.858460e-02 2.346393e-03 0.000000e+00 2.161180e-02 2.502910e-03 0.000000e+00 2.617350e-02 2.524113e-03 0.000000e+00 3.137873e-02 2.639627e-03 0.000000e+00 3.752137e-02 3.008683e-03 0.000000e+00 3.776597e-02 6.166347e-03 0.000000e+00 3.784643e-02 1.101230e-02 0.000000e+00 3.786090e-02 1.518913e-02 0.000000e+00 3.783230e-02 1.955867e-02 0.000000e+00 3.754713e-02 2.470217e-02 0.000000e+00 3.723927e-02 2.790707e-02 0.000000e+00 3.628640e-02 2.608390e-02 0.000000e+00 3.611833e-02 2.912723e-02 0.000000e+00 3.408643e-02 2.912723e-02 0.000000e+00 3.087660e-02 2.921273e-02 0.000000e+00 2.501827e-02 2.926087e-02 0.000000e+00 1.904280e-02 2.911593e-02 0.000000e+00 1.198477e-02 2.896897e-02 0.000000e+00 3.632203e-03 2.877927e-02 0.000000e+00 -6.986700e-03 2.871053e-02 0.000000e+00 -1.324537e-02 2.870067e-02 0.000000e+00 -1.980157e-02 2.827160e-02 0.000000e+00 -1.603787e-02 2.697227e-02 0.000000e+00 -2.214197e-02 2.605700e-02 0.000000e+00 -2.292793e-02 2.020170e-02 0.000000e+00 3.262367e-02 1.308173e-02 0.000000e+00 3.230910e-02 1.158190e-02 0.000000e+00 3.163363e-02 1.021931e-02 0.000000e+00 3.067930e-02 9.118857e-03 0.000000e+00 2.954320e-02 8.202103e-03 0.000000e+00 2.821697e-02 7.534673e-03 0.000000e+00 2.677307e-02 7.219233e-03 0.000000e+00 2.535023e-02 7.229130e-03 0.000000e+00 2.386283e-02 7.541663e-03 0.000000e+00 2.245127e-02 8.173457e-03 0.000000e+00 2.127943e-02 9.111423e-03 0.000000e+00 2.036480e-02 1.024937e-02 0.000000e+00 1.971930e-02 1.160353e-02 0.000000e+00 1.938457e-02 1.303760e-02 0.000000e+00 1.937697e-02 1.447027e-02 0.000000e+00 1.966720e-02 1.588373e-02 0.000000e+00 2.030720e-02 1.725297e-02 0.000000e+00 2.126137e-02 1.847507e-02 0.000000e+00 2.246777e-02 1.943387e-02 0.000000e+00 2.380200e-02 2.006090e-02 0.000000e+00 2.519913e-02 2.038260e-02 0.000000e+00 2.659083e-02 2.039017e-02 0.000000e+00 2.803923e-02 2.009040e-02 0.000000e+00 2.941547e-02 1.950650e-02 0.000000e+00 3.063903e-02 1.857997e-02 0.000000e+00 3.163043e-02 1.731373e-02 0.000000e+00 3.228907e-02 1.595550e-02 0.000000e+00 3.260633e-02 1.455787e-02 0.000000e+00 3.678733e-02 4.307610e-03 0.000000e+00 -2.364000e-02 1.736043e-04 0.000000e+00 -2.281467e-02 1.631223e-04 0.000000e+00 -2.309467e-02 3.367267e-04 0.000000e+00 -2.257787e-02 3.170643e-04 0.000000e+00 -2.184373e-02 1.550423e-04 0.000000e+00 -2.160690e-02 3.153900e-04 0.000000e+00 -2.087983e-02 1.651600e-04 0.000000e+00 -1.992243e-02 1.635233e-04 0.000000e+00 -1.896147e-02 1.715653e-04 0.000000e+00 -1.920580e-02 3.371213e-04 0.000000e+00 -1.872170e-02 3.368620e-04 0.000000e+00 -1.799830e-02 1.583367e-04 0.000000e+00 -1.704340e-02 1.550750e-04 0.000000e+00 -1.607933e-02 1.567140e-04 0.000000e+00 -1.512317e-02 1.617350e-04 0.000000e+00 -1.536867e-02 3.209327e-04 0.000000e+00 -1.488780e-02 3.247710e-04 0.000000e+00 -1.417147e-02 1.657430e-04 0.000000e+00 -1.320137e-02 1.615120e-04 0.000000e+00 -1.224380e-02 1.628883e-04 0.000000e+00 -1.248493e-02 3.243060e-04 0.000000e+00 -1.201050e-02 3.284813e-04 0.000000e+00 -1.128930e-02 1.641377e-04 0.000000e+00 -1.032373e-02 1.591453e-04 0.000000e+00 -9.361707e-03 1.591803e-04 0.000000e+00 -9.609900e-03 3.180237e-04 0.000000e+00 -9.116957e-03 3.205360e-04 0.000000e+00 -8.396620e-03 1.641813e-04 0.000000e+00 -8.151863e-03 3.312390e-04 0.000000e+00 -7.440907e-03 1.688460e-04 0.000000e+00 -6.475497e-03 1.541883e-04 0.000000e+00 -5.522450e-03 1.401560e-04 0.000000e+00 -5.768877e-03 2.816900e-04 0.000000e+00 -5.277567e-03 2.977800e-04 0.000000e+00 -4.557890e-03 1.618643e-04 0.000000e+00 -3.599783e-03 1.586310e-04 0.000000e+00 -2.639110e-03 1.465977e-04 0.000000e+00 -1.678670e-03 1.661163e-04 0.000000e+00 -1.922480e-03 3.248773e-04 0.000000e+00 -1.434490e-03 3.405300e-04 0.000000e+00 -7.058257e-04 1.853213e-04 0.000000e+00 4.950083e-03 1.130889e-03 0.000000e+00 3.849230e-03 5.918352e-04 0.000000e+00 7.838260e-03 7.557517e-04 0.000000e+00 1.133543e-02 8.656797e-04 0.000000e+00 1.427630e-02 8.817397e-04 0.000000e+00 1.640513e-02 1.806197e-03 0.000000e+00 1.733643e-02 2.723213e-03 0.000000e+00 1.805710e-02 2.874010e-03 0.000000e+00 1.993840e-02 2.425463e-03 0.000000e+00 2.375830e-02 2.577830e-03 0.000000e+00 2.505957e-02 3.101943e-03 0.000000e+00 3.005377e-02 3.205280e-03 0.000000e+00 2.871977e-02 2.565653e-03 0.000000e+00 3.409720e-02 2.803037e-03 0.000000e+00 3.707943e-02 7.335193e-03 0.000000e+00 3.781347e-02 8.701033e-03 0.000000e+00 3.715990e-02 9.769497e-03 0.000000e+00 3.788740e-02 1.314723e-02 0.000000e+00 3.774823e-02 1.729790e-02 0.000000e+00 3.770757e-02 2.198053e-02 0.000000e+00 1.732697e-02 2.813503e-02 0.000000e+00 1.557927e-02 2.901910e-02 0.000000e+00 3.269900e-02 2.833997e-02 0.000000e+00 2.935370e-02 2.845227e-02 0.000000e+00 2.781170e-02 2.923953e-02 0.000000e+00 2.639500e-02 2.850040e-02 0.000000e+00 2.223157e-02 2.922417e-02 0.000000e+00 1.381527e-02 2.798807e-02 0.000000e+00 8.031137e-03 2.889270e-02 0.000000e+00 -4.123090e-03 2.728437e-02 0.000000e+00 -1.198417e-03 2.857383e-02 0.000000e+00 -1.002719e-02 2.741120e-02 0.000000e+00 3.294570e-02 1.223310e-02 0.000000e+00 3.308240e-02 1.382250e-02 0.000000e+00 3.240927e-02 1.066846e-02 0.000000e+00 3.151247e-02 9.382083e-03 0.000000e+00 3.036437e-02 8.311407e-03 0.000000e+00 2.906530e-02 7.459887e-03 0.000000e+00 2.756433e-02 6.933003e-03 0.000000e+00 2.604700e-02 6.802027e-03 0.000000e+00 2.451277e-02 6.968320e-03 0.000000e+00 2.295897e-02 7.446843e-03 0.000000e+00 2.158077e-02 8.277360e-03 0.000000e+00 2.046297e-02 9.380470e-03 0.000000e+00 1.962013e-02 1.072123e-02 0.000000e+00 1.909593e-02 1.221973e-02 0.000000e+00 1.891300e-02 1.375080e-02 0.000000e+00 1.906483e-02 1.527593e-02 0.000000e+00 1.955993e-02 1.677317e-02 0.000000e+00 2.042313e-02 1.817600e-02 0.000000e+00 2.157573e-02 1.932917e-02 0.000000e+00 2.294480e-02 2.016120e-02 0.000000e+00 2.440160e-02 2.064950e-02 0.000000e+00 2.589963e-02 2.081680e-02 0.000000e+00 2.739473e-02 2.065897e-02 0.000000e+00 2.894647e-02 2.018490e-02 0.000000e+00 3.032357e-02 1.941143e-02 0.000000e+00 3.151980e-02 1.822977e-02 0.000000e+00 3.238047e-02 1.681127e-02 0.000000e+00 3.289473e-02 1.536320e-02 0.000000e+00 -1.138429e-03 8.096280e-03 0.000000e+00 -2.208693e-02 3.089843e-04 0.000000e+00 -2.112300e-02 3.255077e-04 0.000000e+00 -2.016757e-02 3.277763e-04 0.000000e+00 -1.775733e-02 3.147210e-04 0.000000e+00 -1.823853e-02 3.236333e-04 0.000000e+00 -1.728243e-02 3.114593e-04 0.000000e+00 -1.632133e-02 3.126590e-04 0.000000e+00 -1.393903e-02 3.314613e-04 0.000000e+00 -1.441610e-02 3.287790e-04 0.000000e+00 -1.344893e-02 3.272303e-04 0.000000e+00 -1.105110e-02 3.256523e-04 0.000000e+00 -1.153600e-02 3.297307e-04 0.000000e+00 -1.056553e-02 3.206600e-04 0.000000e+00 -8.631870e-03 3.255370e-04 0.000000e+00 -7.676150e-03 3.359037e-04 0.000000e+00 -6.712443e-03 3.182857e-04 0.000000e+00 -4.313030e-03 3.230530e-04 0.000000e+00 -4.793007e-03 3.194883e-04 0.000000e+00 -3.834923e-03 3.198197e-04 0.000000e+00 -2.882097e-03 2.949867e-04 0.000000e+00 -4.247990e-04 3.902693e-04 0.000000e+00 -9.416457e-04 3.597350e-04 0.000000e+00 6.837617e-03 1.229541e-03 0.000000e+00 1.043452e-02 1.369913e-03 0.000000e+00 1.359147e-02 1.341531e-03 0.000000e+00 1.928013e-02 2.771857e-03 0.000000e+00 2.269583e-02 3.080740e-03 0.000000e+00 2.752970e-02 3.089767e-03 0.000000e+00 3.266823e-02 3.442663e-03 0.000000e+00 3.723383e-02 1.202530e-02 0.000000e+00 3.710913e-02 1.624160e-02 0.000000e+00 3.703987e-02 2.079103e-02 0.000000e+00 2.364283e-02 2.848503e-02 0.000000e+00 1.001834e-02 2.786167e-02 0.000000e+00 1.148280e-03 2.735310e-02 0.000000e+00 -2.187153e-02 1.781887e-02 0.000000e+00 -1.584483e-02 3.159117e-04 0.000000e+00 -2.402920e-03 3.053587e-04 0.000000e+00 1.209650e-02 1.370374e-03 0.000000e+00 1.496447e-02 1.270496e-03 0.000000e+00 3.675470e-02 2.326907e-02 0.000000e+00 -1.968677e-02 3.290793e-04 0.000000e+00 -2.064497e-02 3.294130e-04 0.000000e+00 -1.680540e-02 3.110200e-04 0.000000e+00 -1.296250e-02 3.229297e-04 0.000000e+00 -1.009193e-02 3.179887e-04 0.000000e+00 -6.241923e-03 2.957223e-04 0.000000e+00 -7.197853e-03 3.329433e-04 0.000000e+00 -3.362770e-03 3.070200e-04 0.000000e+00 8.672683e-03 1.313877e-03 0.000000e+00 2.076100e-02 2.928373e-03 0.000000e+00 3.708053e-02 1.843863e-02 0.000000e+00 3.724830e-02 1.411830e-02 0.000000e+00 2.070107e-02 2.834010e-02 0.000000e+00 5.806120e-03 2.767197e-02 0.000000e+00 -2.113147e-02 6.741743e-04 0.000000e+00 -2.017700e-02 6.675697e-04 0.000000e+00 -1.681017e-02 6.413607e-04 0.000000e+00 -1.776050e-02 6.320880e-04 0.000000e+00 -2.065687e-02 6.803663e-04 0.000000e+00 -2.042647e-02 8.549997e-04 0.00000
[...]
<PointData Scalars="" Vectors="IST_PrincipalStressTensor IST_PrincStressVector1 " Tensors="IST_StressTensor IST_StrainTensor " >
  <DataArray type="Float64" Name="IST_StressTensor" NumberOfComponents="9" format="ascii">-7.454027e+00 -2.958725e+00 0.000000e+00 -2.958725e+00 -5.922811e+01 0.000000e+00 0.000000e+00 0.000000e+00 0.000000e+00 -2.403998e+00 -1.342566e+00 0.000000e+00 -1.342566e+00 -5.293293e+01 0.000000e+00 0.000000e+00 0.000000e+00 0.000000e+00 2.317728e-01 -9.803449e-01 0.000000e+00 -9.803449e-01 -4.720136e+01 0.000000e+00 0.000000e+00 0.000000e+00 0.000000e+00 1.961089e+00 -8.736986e-01 0.000000e+00 -8.736986e-01 -4.177287e+01 0.000000e+00 0.000000e+00 0.000000e+00 0.000000e+00 3.588763e+00 -8.666086e-01 0.000000e+00 -8.666086e-01 -3.679579e+01 0.000000e+00 0.000000e+00 0.000000e+00 0.000000e+00 5.284856e+00 -8.856187e-01 0.000000e+00 -8.856187e-01 -3.194109e+01 0.000000e+00 0.000000e+00 0.000000e+00 0.000000e+00 7.177832e+00 -8.364434e-01 0.000000e+00 -8.364434e-01 -2.752138e+01 0.000000e+00 0.000000e+00 0.000000e+00 0.000000e+00 9.211339e+00 -8.685205e-01 0.000000e+00 -8.685205e-01 -2.330864e+01 0.000000e+00 0.000000e+00 0.000000e+00 0.000000e+00 1.145530e+01 -9.105686e-01 0.000000e+00 -9.105686e-01 -1.929123e+01 0.000000e+00 0.000000e+00 0.000000e+00 0.000000e+00 1.387576e+01 -9.687840e-01 0.000000e+00 -9.687840e-01 -1.542883e+01 0.000000e+00 0.000000e+00 0.000000e+00 0.000000e+00 1.644770e+01 -1.044567e+00 0.000000e+00 -1.044567e+00 -1.147064e+01 0.000000e+00 0.000000e+00 0.000000e+00 0.000000e+00 1.931340e+01 -1.061176e+00 0.000000e+00 -1.061176e+00 -7.755454e+00 0.000000e+00 0.000000e+00 0.000000e+00 0.000000e+00 2.240336e+01 -1.156217e+00 0.000000e+00 -1.156217e+00 -4.057196e+00 0.000000e+00 0.000000e+00 0.000000e+00 0.000000e+00 2.569692e+01 -1.226510e+00 0.000000e+00 -1.226510e+00 -2.972828e-02 0.000000e+00 0.000000e+00 0.000000e+00 0.000000e+00 2.937236e+01 -1.287914e+00 0.000000e+00 -1.287914e+00 3.948303e+00 0.000000e+00 0.000000e+00 0.000000e+00 0.000000e+00 3.330038e+01 -1.448195e+00 0.000000e+00 -1.448195e+00 8.483418e+00 0.000000e+00 0.000000e+00 0.000000e+00 0.000000e+00 3.767558e+01 -1.653777e+00 0.000000e+00 -1.653777e+00 1.336615e+01 0.000000e+00 0.000000e+00 0.000000e+00 0.000000e+00 4.276131e+01 -1.858124e+00 0.000000e+00 -1.858124e+00 1.838291e+01 0.000000e+00 0.000000e+00 0.000000e+00 0.000000e+00 4.849874e+01 -1.899859e+00 0.000000e+00 -1.899859e+00 2.466073e+01 0.000000e+00 0.000000e+00 0.000000e+00 0.000000e+00 5.532034e+01 -2.527849e+00 0.000000e+00 -2.527849e+00 3.166493e+01 0.000000e+00 0.000000e+00 0.000000e+00 0.000000e+00 6.391606e+01 -3.274901e+00 0.000000e+00 -3.274901e+00 4.015273e+01 0.000000e+00 0.000000e+00 0.000000e+00 0.000000e+00 7.567888e+01 -4.314879e+00 0.000000e+00 -4.314879e+00 5.159997e+01 0.000000e+00 0.000000e+00 0.000000e+00 0.000000e+00 9.363208e+01 -7.496559e+00 0.000000e+00 -7.496559e+00 6.787378e+01 0.000000e+00 0.000000e+00 0.000000e+00 0.000000e+00 1.279053e+02 -1.822370e+01 0.000000e+00 -1.822370e+01 9.902589e+01 0.000000e+00 0.000000e+00 0.000000e+00 0.000000e+00 1.943019e+02 -5.805021e+01 0.000000e+00 -5.805021e+01 1.994777e+02 0.000000e+00 0.000000e+00 0.000000e+00 0.000000e+00 2.156807e+01 1.113634e+00 0.000000e+00 1.113634e+00 7.345947e-01 0.000000e+00 0.000000e+00 0.000000e+00 0.000000e+00 1.890624e+01 1.276556e+00 0.000000e+00 1.276556e+00 -3.127397e-01 0.000000e+00 0.000000e+00 0.000000e+00 0.000000e+00 1.459333e+01 1.718931e+00 0.000000e+00 1.718931e+00 -1.940722e-01 0.000000e+00 0.000000e+00 0.000000e+00 0.000000e+00 7.527460e+00 2.300527e+00 0.000000e+00 2.300527e+00 3.742781e-01 0.000000e+00 0.000000e+00 0.000000e+00 0.000000e+00 9.204809e+00 2.688034e+00 0.000000e+00 2.688034e+00 1.046526e+00 0.000000e+00 0.000000e+00 0.000000e+00 0.000000e+00 1.610301e+01 5.992114e+00 0.000000e+00 5.992114e+00 2.913864e+00 0.000000e+00 0.000000e+00 0.000000e+00 0.000000e+00 1.885958e+01 4.185073e+00 0.000000e+00 4.185073e+00 2.143012e+00 0.000000e+00 0.000000e+00 0.000000e+00 0.000000e+00 4.608431e+00 2.229810e+00 0.000000e+00 2.229810e+00 3.831427e-01 0.000000e+00 0.000000e+00 0.000000e+00 0.000000e+00 -3.580128e+00 1.194801e+00 0.000000e+00 1.194801e+00 1.323800e+00 0.000000e+00 0.000000e+00 0.000000e+00 0.000000e+00 -3.216384e+00 -6.910530e-01 0.000000e+00 -6.910530e-01 4.244585e-01 0.000000e+00 0.000000e+00 0.000000e+00 0.000000e+00 -2.888136e-01 -2.976819e-01 0.000000e+00 -2.976819e-01 -3.068226e-01 0.000000e+00 0.000000e+00 0.000000e+00 0.000000e+00 -8.078335e-02 -3.253575e-01 0.000000e+00 -3.253575e-01 -1.211700e+00 0.000000e+00 0.000000e+00 0.000000e+00 0.000000e+00 3.169332e-01 2.928315e-01 0.000000e+00 2.928315e-01 -1.821974e+00 0.000000e+00 0.000000e+00 0.000000e+00 0.000000e+00 -2.328560e-02 5.700634e-01 0.000000e+00 5.700634e-01 2.024234e-01 0.000000e+00 0.000000e+00 0.000000e+00 0.000000e+00 -2.418794e-01 2.075009e-01 0.000000e+00 2.075009e-01 1.841831e+00 0.000000e+00 0.000000e+00 0.000000e+00 0.000000e+00 -1.255022e-01 -3.203785e-01 0.000000e+00 -3.203785e-01 1.070027e+00 0.000000e+00 0.000000e+00 0.000000e+00 0.000000e+00 1.093300e-01 -2.735314e-01 0.000000e+00 -2.735314e-01 2.886143e-01 0.000000e+00 0.000000e+00 0.000000e+00 0.000000e+00 2.726419e-02 -3.468071e-01 0.000000e+00 -3.468071e-01 1.649976e-01 0.000000e+00 0.000000e+00 0.000000e+00 0.000000e+00 2.995716e-01 -3.248411e-01 0.000000e+00 -3.248411e-01 -1.049334e-01 0.000000e+00 0.000000e+00 0.000000e+00 0.000000e+00 9.285278e-01 -1.807572e-01 0.000000e+00 -1.807572e-01 8.482451e-03 0.000000e+00 0.000000e+00 0.000000e+00 0.000000e+00 1.418309e+00 5.634293e-02 0.000000e+00 5.634293e-02 -5.534999e-01 0.000000e+00 0.000000e+00 0.000000e+00 0.000000e+00 -1.566061e+00 1.349967e+00 0.000000e+00 1.349967e+00 -6.687650e-01 0.000000e+00 0.000000e+00 0.000000e+00 0.000000e+00 -1.198716e+01 2.798757e+00 0.000000e+00 2.798757e+00 -3.279072e-01 0.000000e+00 0.000000e+00 0.000000e+00 0.000000e+00 -2.573699e+01 3.034562e+00 0.000000e+00 3.034562e+00 5.382711e-01 0.000000e+00 0.000000e+00 0.000000e+00 0.000000e+00 -3.550272e+01 1.514567e+00 0.000000e+00 1.514567e+00 2.013742e+00 0.000000e+00 0.000000e+00 0.000000e+00 0.000000e+00 -2.720695e+01 -3.403507e+00 0.000000e+00 -3.403507e+00 2.735593e+00 0.000000e+00 0.000000e+00 0.000000e+00 0.000000e+00 -1.266777e+01 -5.161030e+00 0.000000e+00 -5.161030e+00 5.915033e-01 0.000000e+00 0.000000e+00 0.000000e+00 0.000000e+00 -2.069573e+00 -1.942949e+00 0.000000e+00 -1.942949e+00 -1.698966e+00 0.000000e+00 0.000000e+00 0.000000e+00 0.000000e+00 -9.428233e+00 -4.586796e+00 0.000000e+00 -4.586796e+00 -1.408209e+00 0.000000e+00 0.000000e+00 0.000000e+00 0.000000e+00 -1.690861e+00 -1.863224e+00 0.000000e+00 -1.863224e+00 -1.853878e+00 0.000000e+00 0.000000e+00 0.000000e+00 0.000000e+00 -5.081656e-01 -5.011155e+00 0.000000e+00 -5.011155e+00 -1.126188e+01 0.000000e+00 0.000000e+00 0.000000e+00 0.000000e+00 8.841222e-01 1.508990e+00 0.000000e+00 1.508990e+00 -1.195595e+00 0.000000e+00 0.000000e+00 0.000000e+00 0.000000e+00 1.873268e+00 7.655239e-01 0.000000e+00 7.655239e-01 -1.192554e+00 0.000000e+00 0.000000e+00 0.000000e+00 0.000000e+00 2.335184e+00 -2.135651e-01 0.000000e+00 -2.135651e-01 -6.292830e-01 0.000000e+00 0.000000e+00 0.000000e+00 0.000000e+00 2.092786e+00 -8.607469e-01 0.000000e+00 -8.607469e-01 4.746957e-01 0.000000e+00 0.000000e+00 0.000000e+00 0.000000e+00 1.100378e+00 -7.708056e-01 0.000000e+00 -7.708056e-01 1.820292e+00 0.000000e+00 0.000000e+00 0.000000e+00 0.000000e+00 3.535318e-02 5.886082e-01 0.000000e+00 5.886082e-01 3.063281e+00 0.000000e+00 0.000000e+00 0.000000e+00 0.000000e+00 2.661740e-02 2.464561e+00 0.000000e+00 2.464561e+00 3.530596e+00 0.000000e+00 0.000000e+00 0.000000e+00 0.000000e+00 2.674150e-01 5.098643e+00 0.000000e+00 5.098643e+00 3.352540e+00 0.000000e+00 0.000000e+00 0.000000e+00 0.000000e+00 1.184259e+00 7.628696e+00 0.000000e+00 7.628696e+00 2.926377e+00 0.000000e+00 0.000000e+00 0.000000e+00 0.000000e+00 4.327145e+00 9.960633e+00 0.000000e+00 9.960633e+00 2.193236e+00 0.000000e+00 0.000000e+00 0.000000e+00 0.000000e+00 5.964693e+00 1.099557e+01 0.000000e+00 1.099557e+01 1.044175e+00 0.000000e+00 0.000000e+00 0.000000e+00 0.000000e+00 6.574925e+00 1.130657e+01 0.000000e+00 1.130657e+01 5.164345e-02 0.000000e+00 0.000000e+00 0.000000e+00 0.000000e+00 6.019616e+00 1.111312e+01 0.000000e+00 1.111312e+01 -4.151201e-01 0.000000e+00 0.000000e+00 0.000000e+00 0.000000e+00 4.097536e+00 1.080336e+01 0.000000e+00 1.080336e+01 -5.269182e-01 0.000000e+00 0.000000e+00 0.000000e+00 0.000000e+00 1.410235e+00 1.077450e+01 0.000000e+00 1.077450e+01 -4.616835e-01 0.000000e+00 0.000000e+00 0.000000e+00 0.000000e+00 -1.329951e+00 1.133294e+01 0.000000e+00 1.133294e+01 -3.306462e-01 0.000000e+00 0.000000e+00 0.000000e+00 0.000000e+00 -2.705115e+00 1.224853e+01 0.000000e+00 1.224853e+01 -1.016672e+00 0.000000e+00 0.000000e+00 0.000000e+00 0.000000e+00 -2.631004e+00 1.249743e+01 0.000000e+00 1.249743e+01 -2.585429e+00 0.000000e+00 0.000000e+00 0.000000e+00 0.000000e+00 -1.380915e+00 1.156814e+01 0.000000e+00 1.156814e+01 -4.342374e+00 0.000000e+00 0.000000e+00 0.000000e+00 0.000000e+00 2.455688e-02 9.642481e+00 0.000000e+00 9.642481e+00 -5.555239e+00 0.000000e+00 0.000000e+00 0.000000e+00 0.000000e+00 9.333637e-01 7.508102e+00 0.000000e+00 7.508102e+00 -6.270315e+00 0.000000e+00 0.000000e+00 0.000000e+00 0.000000e+00 1.380512e+00 4.943342e+00 0.000000e+00 4.943342e+00 -6.608923e+00 0.000000e+00 0.000000e+00 0.000000e+00 0.000000e+00 1.077914e+00 2.461480e+00 0.000000e+00 2.461480e+00 -6.009000e+00 0.000000e+00 0.000000e+00 0.000000e+00 0.000000e+00 1.573183e-01 6.764091e-01 0.000000e+00 6.764091e-01 -4.841233e+00 0.000000e+00 0.000000e+00 0.000000e+00 0.000000e+00 -1.078512e+00 3.184418e-01 0.000000e+00 3.184418e-01 -2.916961e+00 0.000000e+00 0.000000e+00 0.000000e+00 0.000000e+00 -1.375379e+00 8.051076e-01 0.000000e+00 8.051076e-01 -1.763919e+00 0.000000e+00 0.000000e+00 0.000000e+00 0.000000e+00 -9.152224e-01 1.365895e+00 0.000000e+00 1.365895e+00 -1.215971e+00 0.000000e+00 0.000000e+00 0.000000e+00 0.000000e+00 -1.331699e-01 1.660948e+00 0.000000e+00 1.660948e+00 -1.134187e+00 0.000000e+00 0.000000e+00 0.000000e+00 0.000000e+00 5.246839e-03 -3.716527e-01 0.000000e+00 -3.716527e-01 -3.095929e-01 0.000000e+00 0.000000e+00 0.000000e+00 0.000000e+00 -1.244416e+01 -2.556305e+00 0.000000e+00 -2.556305e+00 -6.072514e+01 0.000000e+00 0.000000e+00 0.000000e+00 0.000000e+00 -4.389886e+00 -1.889046e+00 0.000000e+00 -1.889046e+00 -5.619249e+01 0.000000e+00 0.000000e+00 0.000000e+00 0.000000e+00 -3.344736e+00 -1.325853e+00 0.000000e+00 -1.325853e+00 -5.665536e+01 0.000000e+00 0.000000e+00 0.000000e+00 0.000000e+00 -1.958858e+00 -5.418546e-01 0.000000e+00 -5.418546e-01 -5.403077e+01 0.000000e+00 0.000000e+00 0.000000e+00 0.000000e+00 -8.944482e-01 -1.094555e+00 0.000000e+00 -1.094555e+00 -5.002913e+01 0.000000e+00 0.000000e+00 0.000000e+00 0.000000e+00 4.218338e-03 -6.731857e-02 0.000000e+00 -6.731857e-02 -4.844019e+01 0.000000e+00 0.000000e+00 0.000000e+00 0.000000e+00 1.119850e+00 -9.274918e-01 0.000000e+00 -9.274918e-01 -4.436668e+01 0.000000e+00 0.000000e+00 0.000000e+00 0.000000e+00 2.750208e+00 -8.575463e-01 0.000000e+00 -8.575463e-01 -3.920054e+01 0.000000e+00 0.000000e+00 0.000000e+00 0.000000e+00 4.406733e+00 -9.102850e-01 0.000000e+00 -9.102850e-01 -3.431212e+01 0.000000e+00 0.000000e+00 0.000000e+00 0.000000e+00 3.886283e+00 7.269229e-03 0.000000e+00 7.269229e-03 -3.552763e+01 0.000000e+00 0.000000e+00 0.000000e+00 0.000000e+00 4.917341e+00 -3.602148e-02 0.000000e+00 -3.602148e-02 -3.311364e+01 0.000000e+00 0.000000e+00 0.000000e+00 0.000000e+00 6.191923e+00 -8.508977e-01 0.000000e+00 -8.508977e-01 -2.962327e+01 0.000000e+00 0.000000e+00 0.000000e+00 0.000000e+00 8.213039e+00 -8.469985e-01 0.000000e+00 -8.469985e-01 -2.551242e+01 0.000000e+00 0.000000e+00 0.000000e+00 0.000000e+00 1.028924e+01 -8.935044e-01 0.000000e+00 -8.935044e-01 -2.122145e+01 0.000000e+00 0.000000e+00 0.000000e+00 0.000000e+00 1.261946e+01 -9.493346e-01 0.000000e+00 -9.493346e-01 -1.728874e+01 0.000000e+00 0.000000e+00 0.000000e+00 0.000000e+00 1.192568e+01 -2.482699e-01 0.000000e+00 -2.482699e-01 -1.827285e+01 0.000000e+00 0.000000e+00 0.000000e+00 0.000000e+00 1.318330e+01 -3.100682e-01 0.000000e+00 -3.100682e-01 -1.633864e+01 0.000000e+00 0.000000e+00 0.000000e+00 0.000000e+00 1.515555e+01 -1.011549e+00 0.000000e+00 -1.011549e+00 -1.350515e+01 0.000000e+00 0.000000e+00 0.000000e+00 0.000000e+00 1.783915e+01 -1.046246e+00 0.000000e+00 -1.046246e+00 -9.565730e+00 0.000000e+00 0.000000e+00 0.000000e+00 0.000000e+00 2.082974e+01 -1.100177e+00 0.000000e+00 -1.100177e+00 -5.924940e+00 0.000000e+00 0.000000e+00 0.000000e+00 0.000000e+00 1.994582e+01 -4.460429e-01 0.000000e+00 -4.460429e-01 -6.853242e+00 0.000000e+00 0.000000e+00 0.000000e+00 0.000000e+00 2.142475e+01 -4.767266e-01 0.000000e+00 -4.767266e-01 -4.996251e+00 0.000000e+00 0.000000e+00 0.000000e+00 0.000000e+00 2.404302e+01 -1.189356e+00 0.000000e+00 -1.189356e+00 -2.139381e+00 0.000000e+00 0.000000e+00 0.000000e+00 0.000000e+00 2.746681e+01 -1.240186e+00 0.000000e+00 -1.240186e+00 2.022235e+00 0.000000e+00 0.000000e+00 0.000000e+00 0.000000e+00 3.131435e+01 -1.369327e+00 0.000000e+00 -1.369327e+00 6.090716e+00 0.000000e+00 0.000000e+00 0.000000e+00 0.000000e+00 3.009356e+01 -6.277956e-01 0.000000e+00 -6.277956e-01 4.991771e+00 0.000000e+00 0.000000e+00 0.000000e+00 0.000000e+00 3.209500e+01 -6.162115e-01 0.000000e+00 -6.162115e-01 7.213026e+00 0.000000e+00 0.000000e+00 0.000000e+00 0.000000e+00 3.541351e+01 -1.545274e+00 0.000000e+00 -1.545274e+00 1.092237e+01 0.000000e+00 0.000000e+00 0.000000e+00 0.000000e+00 3.624920e+01 -7.573070e-01 0.000000e+00 -7.573070e-01 1.201881e+01 0.000000e+00 0.000000e+00 0.000000e+00 0.000000e+00 4.016247e+01 -1.766057e+00 0.000000e+00 -1.766057e+00 1.572611e+01 0.000000e+00 0.000000e+00 0.000000e+00 0.000000e+00 4.547125e+01 -1.887306e+00 0.000000e+00 -1.887306e+00 2.149147e+01 0.000000e+00 0.000000e+00 0.000000e+00 0.000000e+00 5.186165e+01 -2.065017e+00 0.000000e+00 -2.065017e+00 2.786154e+01 0.000000e+00 0.000000e+00 0.000000e+00 0.000000e+00 4.972756e+01 -9.939529e-01 0.000000e+00 -9.939529e-01 2.617932e+01 0.000000e+00 0.000000e+00 0.000000e+00 0.000000e+00 5.238132e+01 -1.111968e+00 0.000000e+00 -1.111968e+00 2.946140e+01 0.000000e+00 0.000000e+00 0.000000e+00 0.000000e+00 5.936126e+01 -2.871993e+00 0.000000e+00 -2.871993e+00 3.564318e+01 0.000000e+00 0.000000e+00 0.000000e+00 0.000000e+00 6.931429e+01 -3.783096e+00 0.000000e+00 -3.783096e+00 4.519587e+01 0.000000e+00 0.000000e+00 0.000000e+00 0.000000e+00 8.360749e+01 -5.334533e+00 0.000000e+00 -5.334533e+00 5.892308e+01 0.000000e+00 0.000000e+00 0.000000e+00 0.000000e+00 1.074474e+02 -1.124176e+01 0.000000e+00 -1.124176e+01 8.050964e+01 0.000000e+00 0.000000e+00 0.000000e+00 0.000000e+00 8.986852e+01 -5.250567e+00 0.000000e+00 -5.250567e+00 7.115017e+01 0.000000e+00 0.000000e+00 0.000000e+00 0.000000e+00 9.687310e+01 -8.350464e+00 0.000000e+00 -8.350464e+00 8.346813e+01 0.000000e+00 0.000000e+00 0.000000e+00 0.000000e+00 1.581851e+02 -3.230672e+01 0.000000e+00 -3.230672e+01 1.318122e+02 0.000000e+00 0.000000e+00 0.000000e+00 0.000000e+00 3.384988e+01 8.052687e-01 0.000000e+00 8.052687e-01 -1.384655e-01 0.000000e+00 0.000000e+00 0.000000e+00 0.000000e+00 2.023418e+01 1.465041e-01 0.000000e+00 1.465041e-01 -1.206061e+00 0.000000e+00 0.000000e+00 0.000000e+00 0.000000e+00 2.034284e+01 1.012379e+00 0.000000e+00 1.012379e+00 -1.425028e-01 0.000000e+00 0.000000e+00 0.000000e+00 0.000000e+00 1.696548e+01 1.509503e+00 0.000000e+00 1.509503e+00 -1.938529e-01 0.000000e+00 0.000000e+00 0.000000e+00 0.000000e+00 1.161056e+01 2.013184e+00 0.000000e+00 2.013184e+00 -2.766803e-01 0.000000e+00 0.000000e+00 0.000000e+00 0.000000e+00 1.030048e+01 4.463496e+00 0.000000e+00 4.463496e+00 4.101786e-01 0.000000e+00 0.000000e+00 0.000000e+00 0.000000e+00 1.339734e+01 3.797723e+00 0.000000e+00 3.797723e+00 2.170475e+00 0.000000e+00 0.000000e+00 0.000000e+00 0.000000e+00 1.214292e+01 5.032217e+00 0.000000e+00 5.032217e+00 2.535025e+00 0.000000e+00 0.000000e+00 0.000000e+00 0.000000e+00 1.035103e+01 2.652222e+00 0.000000e+00 2.652222e+00 4.255611e-01 0.000000e+00 0.000000e+00 0.000000e+00 0.000000e+00 -4.788753e-02 1.887390e+00 0.000000e+00 1.887390e+00 1.040079e+00 0.000000e+00 0.000000e+00 0.000000e+00 0.000000e+00 -6.822254e-01 8.088696e-01 0.000000e+00 8.088696e-01 -5.138392e-01 0.000000e+00 0.000000e+00 0.000000e+00 0.000000e+00 -2.085935e+00 -3.864831e-01 0.000000e+00 -3.864831e-01 -3.495724e-01 0.000000e+00 0.000000e+00 0.000000e+00 0.000000e+00 -4.529591e+00 2.284009e-02 0.000000e+00 2.284009e-02 9.112436e-01 0.000000e+00 0.000000e+00 0.000000e+00 0.000000e+00 -1.365466e+00 -6.760529e-01 0.000000e+00 -6.760529e-01 -5.805208e-02 0.000000e+00 0.000000e+00 0.000000e+00 0.000000e+00 2.311120e-02 -3.867523e-01 0.000000e+00 -3.867523e-01 -1.083971e+00 0.000000e+00 0.000000e+00 0.000000e+00 0.000000e+00 3.043424e-01 -1.096917e-01 0.000000e+00 -1.096917e-01 -1.930890e+00 0.000000e+00 0.000000e+00 0.000000e+00 0.000000e+00 1.652686e-02 -3.001706e-02 0.000000e+00 -3.001706e-02 -1.453152e+00 0.000000e+00 0.000000e+00 0.000000e+00 0.000000e+00 1.817953e-01 5.063701e-01 0.000000e+00 5.063701e-01 -9.978812e-01 0.000000e+00 0.000000e+00 0.000000e+00 0.000000e+00 -1.943990e-01 4.150096e-01 0.000000e+00 4.150096e-01 1.177027e+00 0.000000e+00 0.000000e+00 0.000000e+00 0.000000e+00 -1.877459e-01 -7.547291e-02 0.000000e+00 -7.547291e-02 1.717701e+00 0.000000e+00 0.000000e+00 0.000000e+00 0.000000e+00 -1.188055e+01 2.963420e+00 0.000000e+00 2.963420e+00 1.439636e-03 0.000000e+00 0.000000e+00 0.000000e+00 0.000000e+00 -1.887336e+01 3.038736e+00 0.000000e+00 3.038736e+00 -6.944470e-02 0.000000e+00 0.000000e+00 0.000000e+00 0.000000e+00 3.233976e-01 -2.732886e-01 0.000000e+00 -2.732886e-01 1.107680e-01 0.000000e+00 0.000000e+00 0.000000e+00 0.000000e+00 2.558200e-02 2.012211e-01 0.000000e+00 2.012211e-01 1.601509e-01 0.000000e+00 0.000000e+00 0.000000e+00 0.000000e+00 7.337342e-01 6.467574e-01 0.000000e+00 6.467574e-01 -7.198552e-01 0.000000e+00 0.000000e+00 0.000000e+00 0.000000e+00 -1.495077e+00 9.095644e-01 0.000000e+00 9.095644e-01 1.088485e-01 0.000000e+00 0.000000e+00 0.000000e+00 0.000000e+00 -5.816854e+00 2.145579e+00 0.000000e+00 2.145579e+00 -6.453258e-01 0.000000e+00 0.000000e+00 0.000000e+00 0.000000e+00 -1.698968e+01 3.007266e+00 0.000000e+00 3.007266e+00 -2.355024e-01 0.000000e+00 0.000000e+00 0.000000e+00 0.000000e+00 -3.180137e+01 2.520732e+00 0.000000e+00 2.520732e+00 1.190532e+00 0.000000e+00 0.000000e+00 0.000000e+00 0.000000e+00 -2.227158e+01 -3.671521e+00 0.000000e+00 -3.671521e+00 -6.691011e-01 0.000000e+00 0.000000e+00 0.000000e+00 0.000000e+00 -3.444744e+01 -7.536632e-01 0.000000e+00 -7.536632e-01 2.724334e+00 0.000000e+00 0.000000e+00 0.000000e+00 0.000000e+00 -1.621646e+01 -4.010116e+00 0.000000e+00 -4.010116e+00 -1.098534e+00 0.000000e+00 0.000000e+00 0.000000e+00 0.000000e+00 1.667887e+00 8.107580e-01 0.000000e+00 8.107580e-01 -8.859655e-01 0.000000e+00 0.000000e+00 0.000000e+00 0.000000e+00 5.281388e-01 1.334659e+00 0.000000e+00 1.334659e+00 -9.371088e-01 0.000000e+00 0.000000e+00 0.000000e+00 0.000000e+00 2.376847e+00 -1.600684e-01 0.000000e+00 -1.600684e-01 -5.392431e-01 0.000000e+00 0.000000e+00 0.000000e+00 0.000000e+00 2.326305e+00 -1.078123e+00 0.000000e+00 -1.078123e+00 3.807879e-01 0.000000e+00 0.000000e+00 0.000000e+00 0.000000e+00 1.929651e+00 -1.516680e+00 0.000000e+00 -1.516680e+00 2.012735e+00 0.000000e+00 0.000000e+00 0.000000e+00 0.000000e+00 1.005347e+00 -7.099921e-01 0.000000e+00 -7.099921e-01 4.023286e+00 0.000000e+00 0.000000e+00 0.000000e+00 0.000000e+00 7.481958e-01 1.282464e+00 0.000000e+00 1.282464e+00 5.044886e+00 0.000000e+00 0.000000e+00 0.000000e+00 0.000000e+00 1.394278e+00 3.878963e+00 0.000000e+00 3.878963e+00 6.016827e+00 0.000000e+00 0.000000e+00 0.000000e+00 0.000000e+00 2.856411e+00 6.583854e+00 