<VTKFile type="UnstructuredGrid" version="0.1" byte_order="LittleEndian">
<UnstructuredGrid>
<Piece NumberOfPoints="1187" NumberOfCells="1187">
<Points>
 <DataArray type="Float64" NumberOfComponents="3" format="ascii"> -2.332000e-02 1.736043e-04 0.000000e+00 -2.232320e-02 1.539420e-04 0.000000e+00 -2.136317e-02 1.603477e-04 0.000000e+00 -2.040513e-02 1.642530e-04 0.000000e+00 -1.944433e-02 1.655560e-04 0.000000e+00 -1.848023e-02 1.652967e-04 0.000000e+00 -1.751903e-02 1.563843e-04 0.000000e+00 -1.656200e-02 1.559450e-04 0.000000e+00 -1.560550e-02 1.591977e-04 0.000000e+00 -1.464463e-02 1.630360e-04 0.000000e+00 -1.368757e-02 1.657183e-04 0.000000e+00 -1.272113e-02 1.614177e-04 0.000000e+00 -1.176670e-02 1.655930e-04 0.000000e+00 -1.080180e-02 1.615147e-04 0.000000e+00 -9.848193e-03 1.588433e-04 0.000000e+00 -8.875250e-03 1.613557e-04 0.000000e+00 -7.915243e-03 1.670577e-04 0.000000e+00 -6.956947e-03 1.640973e-04 0.000000e+00 -6.006427e-03 1.415340e-04 0.000000e+00 -5.035117e-03 1.576240e-04 0.000000e+00 -4.075140e-03 1.611887e-04 0.000000e+00 -3.122987e-03 1.483890e-04 0.000000e+00 -2.163810e-03 1.587610e-04 0.000000e+00 -1.195820e-03 1.744137e-04 0.000000e+00 -1.989733e-04 2.049480e-04 0.000000e+00 5.899183e-03 6.880700e-04 0.000000e+00 9.634380e-03 8.314163e-04 0.000000e+00 1.288147e-02 8.811043e-04 0.000000e+00 1.556457e-02 8.507557e-04 0.000000e+00 1.625697e-02 1.110600e-03 0.000000e+00 1.714523e-02 1.943163e-03 0.000000e+00 1.858460e-02 2.346393e-03 0.000000e+00 2.161180e-02 2.502910e-03 0.000000e+00 2.617350e-02 2.524113e-03 0.000000e+00 3.137873e-02 2.639627e-03 0.000000e+00 3.752137e-02 3.008683e-03 0.000000e+00 3.776597e-02 6.166347e-03 0.000000e+00 3.784643e-02 1.101230e-02 0.000000e+00 3.786090e-02 1.518913e-02 0.000000e+00 3.783230e-02 1.955867e-02 0.000000e+00 3.754713e-02 2.470217e-02 0.000000e+00 3.723927e-02 2.790707e-02 0.000000e+00 3.628640e-02 2.608390e-02 0.000000e+00 3.611833e-02 2.912723e-02 0.000000e+00 3.408643e-02 2.912723e-02 0.000000e+00 3.087660e-02 2.921273e-02 0.000000e+00 2.501827e-02 2.926087e-02 0.000000e+00 1.904280e-02 2.911593e-02 0.000000e+00 1.198477e-02 2.896897e-02 0.000000e+00 3.632203e-03 2.877927e-02 0.000000e+00 -6.986700e-03 2.871053e-02 0.000000e+00 -1.324537e-02 2.870067e-02 0.000000e+00 -1.980157e-02 2.827160e-02 0.000000e+00 -1.603787e-02 2.697227e-02 0.000000e+00 -2.214197e-02 2.605700e-02 0.000000e+00 -2.292793e-02 2.020170e-02 0.000000e+00 3.262367e-02 1.308173e-02 0.000000e+00 3.230910e-02 1.158190e-02 0.000000e+00 3.163363e-02 1.021931e-02 0.000000e+00 3.067930e-02 9.118857e-03 0.000000e+00 2.954320e-02 8.202103e-03 0.000000e+00 2.821697e-02 7.534673e-03 0.000000e+00 2.677307e-02 7.219233e-03 0.000000e+00 2.535023e-02 7.229130e-03 0.000000e+00 2.386283e-02 7.541663e-03 0.000000e+00 2.245127e-02 8.173457e-03 0.000000e+00 2.127943e-02 9.111423e-03 0.000000e+00 2.036480e-02 1.024937e-02 0.000000e+00 1.971930e-02 1.160353e-02 0.000000e+00 1.938457e-02 1.303760e-02 0.000000e+00 1.937697e-02 1.447027e-02 0.000000e+00 1.966720e-02 1.588373e-02 0.000000e+00 2.030720e-02 1.725297e-02 0.000000e+00 2.126137e-02 1.847507e-02 0.000000e+00 2.246777e-02 1.943387e-02 0.000000e+00 2.380200e-02 2.006090e-02 0.000000e+00 2.519913e-02 2.038260e-02 0.000000e+00 2.659083e-02 2.039017e-02 0.000000e+00 2.803923e-02 2.009040e-02 0.000000e+00 2.941547e-02 1.950650e-02 0.000000e+00 3.063903e-02 1.857997e-02 0.000000e+00 3.163043e-02 1.731373e-02 0.000000e+00 3.228907e-02 1.595550e-02 0.000000e+00 3.260633e-02 1.455787e-02 0.000000e+00 3.678733e-02 4.307610e-03 0.000000e+00 -2.364000e-02 1.736043e-04 0.000000e+00 -2.281467e-02 1.631223e-04 0.000000e+00 -2.309467e-02 3.367267e-04 0.000000e+00 -2.257787e-02 3.170643e-04 0.000000e+00 -2.184373e-02 1.550423e-04 0.000000e+00 -2.160690e-02 3.153900e-04 0.000000e+00 -2.087983e-02 1.651600e-04 0.000000e+00 -1.992243e-02 1.635233e-04 0.000000e+00 -1.896147e-02 1.715653e-04 0.000000e+00 -1.920580e-02 3.371213e-04 0.000000e+00 -1.872170e-02 3.368620e-04 0.000000e+00 -1.799830e-02 1.583367e-04 0.000000e+00 -1.704340e-02 1.550750e-04 0.000000e+00 -1.607933e-02 1.567140e-04 0.000000e+00 -1.512317e-02 1.617350e-04 0.000000e+00 -1.536867e-02 3.209327e-04 0.000000e+00 -1.488780e-02 3.247710e-04 0.000000e+00 -1.417147e-02 1.657430e-04 0.000000e+00 -1.320137e-02 1.615120e-04 0.000000e+00 -1.224380e-02 1.628883e-04 0.000000e+00 -1.248493e-02 3.243060e-04 0.000000e+00 -1.201050e-02 3.284813e-04 0.000000e+00 -1.128930e-02 1.641377e-04 0.000000e+00 -1.032373e-02 1.591453e-04 0.000000e+00 -9.361707e-03 1.591803e-04 0.000000e+00 -9.609900e-03 3.180237e-04 0.000000e+00 -9.116957e-03 3.205360e-04 0.000000e+00 -8.396620e-03 1.641813e-04 0.000000e+00 -8.151863e-03 3.312390e-04 0.000000e+00 -7.440907e-03 1.688460e-04 0.000000e+00 -6.475497e-03 1.541883e-04 0.000000e+00 -5.522450e-03 1.401560e-04 0.000000e+00 -5.768877e-03 2.816900e-04 0.000000e+00 -5.277567e-03 2.977800e-04 0.000000e+00 -4.557890e-03 1.618643e-04 0.000000e+00 -3.599783e-03 1.586310e-04 0.000000e+00 -2.639110e-03 1.465977e-04 0.000000e+00 -1.678670e-03 1.661163e-04 0.000000e+00 -1.922480e-03 3.248773e-04 0.000000e+00 -1.434490e-03 3.405300e-04 0.000000e+00 -7.058257e-04 1.853213e-04 0.000000e+00 4.950083e-03 1.130889e-03 0.000000e+00 3.849230e-03 5.918352e-04 0.000000e+00 7.838260e-03 7.557517e-04 0.000000e+00 1.133543e-02 8.656797e-04 0.000000e+00 1.427630e-02 8.817397e-04 0.000000e+00 1.640513e-02 1.806197e-03 0.000000e+00 1.733643e-02 2.723213e-03 0.000000e+00 1.805710e-02 2.874010e-03 0.000000e+00 1.993840e-02 2.425463e-03 0.000000e+00 2.375830e-02 2.577830e-03 0.000000e+00 2.505957e-02 3.101943e-03 0.000000e+00 3.005377e-02 3.205280e-03 0.000000e+00 2.871977e-02 2.565653e-03 0.000000e+00 3.409720e-02 2.803037e-03 0.000000e+00 3.707943e-02 7.335193e-03 0.000000e+00 3.781347e-02 8.701033e-03 0.000000e+00 3.715990e-02 9.769497e-03 0.000000e+00 3.788740e-02 1.314723e-02 0.000000e+00 3.774823e-02 1.729790e-02 0.000000e+00 3.770757e-02 2.198053e-02 0.000000e+00 1.732697e-02 2.813503e-02 0.000000e+00 1.557927e-02 2.901910e-02 0.000000e+00 3.269900e-02 2.833997e-02 0.000000e+00 2.935370e-02 2.845227e-02 0.000000e+00 2.781170e-02 2.923953e-02 0.000000e+00 2.639500e-02 2.850040e-02 0.000000e+00 2.223157e-02 2.922417e-02 0.000000e+00 1.381527e-02 2.798807e-02 0.000000e+00 8.031137e-03 2.889270e-02 0.000000e+00 -4.123090e-03 2.728437e-02 0.000000e+00 -1.198417e-03 2.857383e-02 0.000000e+00 -1.002719e-02 2.741120e-02 0.000000e+00 3.294570e-02 1.223310e-02 0.000000e+00 3.308240e-02 1.382250e-02 0.000000e+00 3.240927e-02 1.066846e-02 0.000000e+00 3.151247e-02 9.382083e-03 0.000000e+00 3.036437e-02 8.311407e-03 0.000000e+00 2.906530e-02 7.459887e-03 0.000000e+00 2.756433e-02 6.933003e-03 0.000000e+00 2.604700e-02 6.802027e-03 0.000000e+00 2.451277e-02 6.968320e-03 0.000000e+00 2.295897e-02 7.446843e-03 0.000000e+00 2.158077e-02 8.277360e-03 0.000000e+00 2.046297e-02 9.380470e-03 0.000000e+00 1.962013e-02 1.072123e-02 0.000000e+00 1.909593e-02 1.221973e-02 0.000000e+00 1.891300e-02 1.375080e-02 0.000000e+00 1.906483e-02 1.527593e-02 0.000000e+00 1.955993e-02 1.677317e-02 0.000000e+00 2.042313e-02 1.817600e-02 0.000000e+00 2.157573e-02 1.932917e-02 0.000000e+00 2.294480e-02 2.016120e-02 0.000000e+00 2.440160e-02 2.064950e-02 0.000000e+00 2.589963e-02 2.081680e-02 0.000000e+00 2.739473e-02 2.065897e-02 0.000000e+00 2.894647e-02 2.018490e-02 0.000000e+00 3.032357e-02 1.941143e-02 0.000000e+00 3.151980e-02 1.822977e-02 0.000000e+00 3.238047e-02 1.681127e-02 0.000000e+00 3.289473e-02 1.536320e-02 0.000000e+00 -1.138429e-03 8.096280e-03 0.000000e+00 -2.208693e-02 3.089843e-04 0.000000e+00 -2.112300e-02 3.255077e-04 0.000000e+00 -2.016757e-02 3.277763e-04 0.000000e+00 -1.775733e-02 3.147210e-04 0.000000e+00 -1.823853e-02 3.236333e-04 0.000000e+00 -1.728243e-02 3.114593e-04 0.000000e+00 -1.632133e-02 3.126590e-04 0.000000e+00 -1.393903e-02 3.314613e-04 0.000000e+00 -1.441610e-02 3.287790e-04 0.000000e+00 -1.344893e-02 3.272303e-04 0.000000e+00 -1.105110e-02 3.256523e-04 0.000000e+00 -1.153600e-02 3.297307e-04 0.000000e+00 -1.056553e-02 3.206600e-04 0.000000e+00 -8.631870e-03 3.255370e-04 0.000000e+00 -7.676150e-03 3.359037e-04 0.000000e+00 -6.712443e-03 3.182857e-04 0.000000e+00 -4.313030e-03 3.230530e-04 0.000000e+00 -4.793007e-03 3.194883e-04 0.000000e+00 -3.834923e-03 3.198197e-04 0.000000e+00 -2.882097e-03 2.949867e-04 0.000000e+00 -4.247990e-04 3.902693e-04 0.000000e+00 -9.416457e-04 3.597350e-04 0.000000e+00 6.837617e-03 1.229541e-03 0.000000e+00 1.043452e-02 1.369913e-03 0.000000e+00 1.359147e-02 1.341531e-03 0.000000e+00 1.928013e-02 2.771857e-03 0.000000e+00 2.269583e-02 3.080740e-03 0.000000e+00 2.752970e-02 3.089767e-03 0.000000e+00 3.266823e-02 3.442663e-03 0.000000e+00 3.723383e-02 1.202530e-02 0.000000e+00 3.710913e-02 1.624160e-02 0.000000e+00 3.703987e-02 2.079103e-02 0.000000e+00 2.364283e-02 2.848503e-02 0.000000e+00 1.001834e-02 2.786167e-02 0.000000e+00 1.148280e-03 2.735310e-02 0.000000e+00 -2.187153e-02 1.781887e-02 0.000000e+00 -1.584483e-02 3.159117e-04 0.000000e+00 -2.402920e-03 3.053587e-04 0.000000e+00 1.209650e-02 1.370374e-03 0.000000e+00 1.496447e-02 1.270496e-03 0.000000e+00 3.675470e-02 2.326907e-02 0.000000e+00 -1.968677e-02 3.290793e-04 0.000000e+00 -2.064497e-02 3.294130e-04 0.000000e+00 -1.680540e-02 3.110200e-04 0.000000e+00 -1.296250e-02 3.229297e-04 0.000000e+00 -1.009193e-02 3.179887e-04 0.000000e+00 -6.241923e-03 2.957223e-04 0.000000e+00 -7.197853e-03 3.329433e-04 0.000000e+00 -3.362770e-03 3.070200e-04 0.000000e+00 8.672683e-03 1.313877e-03 0.000000e+00 2.076100e-02 2.928373e-03 0.000000e+00 3.708053e-02 1.843863e-02 0.000000e+00 3.724830e-02 1.411830e-02 0.000000e+00 2.070107e-02 2.834010e-02 0.000000e+00 5.806120e-03 2.767197e-02 0.000000e+00 -2.113147e-02 6.741743e-04 0.000000e+00 -2.017700e-02 6.675697e-04 0.000000e+00 -1.681017e-02 6.413607e-04 0.000000e+00 -1.776050e-02 6.320880e-04 0.000000e+00 -2.065687e-02 6.803663e-04 0.000000e+00 -2.042647e-02 8.549997e-04 0.00000
[...]
<PointData Scalars="" Vectors="IST_PrincipalStressTensor IST_PrincStressVector1 " Tensors="IST_StressTensor IST_StrainTensor " >
  <DataArray type="Float64" Name="IST_StressTensor" NumberOfComponents="9" format="ascii">-1.242338e+01 -4.931208e+00 0.000000e+00 -4.931208e+00 -9.871351e+01 0.000000e+00 0.000000e+00 0.000000e+00 0.000000e+00 -4.006663e+00 -2.237610e+00 0.000000e+00 -2.237610e+00 -8.822156e+01 0.000000e+00 0.000000e+00 0.000000e+00 0.000000e+00 3.862881e-01 -1.633908e+00 0.000000e+00 -1.633908e+00 -7.866894e+01 0.000000e+00 0.000000e+00 0.000000e+00 0.000000e+00 3.268482e+00 -1.456164e+00 0.000000e+00 -1.456164e+00 -6.962146e+01 0.000000e+00 0.000000e+00 0.000000e+00 0.000000e+00 5.981272e+00 -1.444348e+00 0.000000e+00 -1.444348e+00 -6.132632e+01 0.000000e+00 0.000000e+00 0.000000e+00 0.000000e+00 8.808094e+00 -1.476031e+00 0.000000e+00 -1.476031e+00 -5.323514e+01 0.000000e+00 0.000000e+00 0.000000e+00 0.000000e+00 1.196305e+01 -1.394072e+00 0.000000e+00 -1.394072e+00 -4.586896e+01 0.000000e+00 0.000000e+00 0.000000e+00 0.000000e+00 1.535223e+01 -1.447534e+00 0.000000e+00 -1.447534e+00 -3.884774e+01 0.000000e+00 0.000000e+00 0.000000e+00 0.000000e+00 1.909216e+01 -1.517614e+00 0.000000e+00 -1.517614e+00 -3.215205e+01 0.000000e+00 0.000000e+00 0.000000e+00 0.000000e+00 2.312627e+01 -1.614640e+00 0.000000e+00 -1.614640e+00 -2.571472e+01 0.000000e+00 0.000000e+00 0.000000e+00 0.000000e+00 2.741284e+01 -1.740945e+00 0.000000e+00 -1.740945e+00 -1.911774e+01 0.000000e+00 0.000000e+00 0.000000e+00 0.000000e+00 3.218901e+01 -1.768627e+00 0.000000e+00 -1.768627e+00 -1.292576e+01 0.000000e+00 0.000000e+00 0.000000e+00 0.000000e+00 3.733894e+01 -1.927028e+00 0.000000e+00 -1.927028e+00 -6.761993e+00 0.000000e+00 0.000000e+00 0.000000e+00 0.000000e+00 4.282820e+01 -2.044183e+00 0.000000e+00 -2.044183e+00 -4.954714e-02 0.000000e+00 0.000000e+00 0.000000e+00 0.000000e+00 4.895394e+01 -2.146524e+00 0.000000e+00 -2.146524e+00 6.580505e+00 0.000000e+00 0.000000e+00 0.000000e+00 0.000000e+00 5.550063e+01 -2.413659e+00 0.000000e+00 -2.413659e+00 1.413903e+01 0.000000e+00 0.000000e+00 0.000000e+00 0.000000e+00 6.279263e+01 -2.756294e+00 0.000000e+00 -2.756294e+00 2.227691e+01 0.000000e+00 0.000000e+00 0.000000e+00 0.000000e+00 7.126885e+01 -3.096874e+00 0.000000e+00 -3.096874e+00 3.063818e+01 0.000000e+00 0.000000e+00 0.000000e+00 0.000000e+00 8.083124e+01 -3.166431e+00 0.000000e+00 -3.166431e+00 4.110121e+01 0.000000e+00 0.000000e+00 0.000000e+00 0.000000e+00 9.220056e+01 -4.213081e+00 0.000000e+00 -4.213081e+00 5.277489e+01 0.000000e+00 0.000000e+00 0.000000e+00 0.000000e+00 1.065268e+02 -5.458168e+00 0.000000e+00 -5.458168e+00 6.692121e+01 0.000000e+00 0.000000e+00 0.000000e+00 0.000000e+00 1.261315e+02 -7.191465e+00 0.000000e+00 -7.191465e+00 8.599994e+01 0.000000e+00 0.000000e+00 0.000000e+00 0.000000e+00 1.560535e+02 -1.249426e+01 0.000000e+00 -1.249426e+01 1.131230e+02 0.000000e+00 0.000000e+00 0.000000e+00 0.000000e+00 2.131756e+02 -3.037283e+01 0.000000e+00 -3.037283e+01 1.650431e+02 0.000000e+00 0.000000e+00 0.000000e+00 0.000000e+00 3.238365e+02 -9.675035e+01 0.000000e+00 -9.675035e+01 3.324628e+02 0.000000e+00 0.000000e+00 0.000000e+00 0.000000e+00 3.594679e+01 1.856057e+00 0.000000e+00 1.856057e+00 1.224324e+00 0.000000e+00 0.000000e+00 0.000000e+00 0.000000e+00 3.151041e+01 2.127594e+00 0.000000e+00 2.127594e+00 -5.212329e-01 0.000000e+00 0.000000e+00 0.000000e+00 0.000000e+00 2.432221e+01 2.864885e+00 0.000000e+00 2.864885e+00 -3.234537e-01 0.000000e+00 0.000000e+00 0.000000e+00 0.000000e+00 1.254577e+01 3.834212e+00 0.000000e+00 3.834212e+00 6.237969e-01 0.000000e+00 0.000000e+00 0.000000e+00 0.000000e+00 1.534135e+01 4.480057e+00 0.000000e+00 4.480057e+00 1.744211e+00 0.000000e+00 0.000000e+00 0.000000e+00 0.000000e+00 2.683835e+01 9.986857e+00 0.000000e+00 9.986857e+00 4.856441e+00 0.000000e+00 0.000000e+00 0.000000e+00 0.000000e+00 3.143264e+01 6.975122e+00 0.000000e+00 6.975122e+00 3.571686e+00 0.000000e+00 0.000000e+00 0.000000e+00 0.000000e+00 7.680719e+00 3.716350e+00 0.000000e+00 3.716350e+00 6.385712e-01 0.000000e+00 0.000000e+00 0.000000e+00 0.000000e+00 -5.966880e+00 1.991335e+00 0.000000e+00 1.991335e+00 2.206334e+00 0.000000e+00 0.000000e+00 0.000000e+00 0.000000e+00 -5.360640e+00 -1.151755e+00 0.000000e+00 -1.151755e+00 7.074309e-01 0.000000e+00 0.000000e+00 0.000000e+00 0.000000e+00 -4.813560e-01 -4.961366e-01 0.000000e+00 -4.961366e-01 -5.113710e-01 0.000000e+00 0.000000e+00 0.000000e+00 0.000000e+00 -1.346389e-01 -5.422626e-01 0.000000e+00 -5.422626e-01 -2.019500e+00 0.000000e+00 0.000000e+00 0.000000e+00 0.000000e+00 5.282221e-01 4.880525e-01 0.000000e+00 4.880525e-01 -3.036624e+00 0.000000e+00 0.000000e+00 0.000000e+00 0.000000e+00 -3.880934e-02 9.501056e-01 0.000000e+00 9.501056e-01 3.373723e-01 0.000000e+00 0.000000e+00 0.000000e+00 0.000000e+00 -4.031323e-01 3.458348e-01 0.000000e+00 3.458348e-01 3.069718e+00 0.000000e+00 0.000000e+00 0.000000e+00 0.000000e+00 -2.091703e-01 -5.339642e-01 0.000000e+00 -5.339642e-01 1.783378e+00 0.000000e+00 0.000000e+00 0.000000e+00 0.000000e+00 1.822167e-01 -4.558857e-01 0.000000e+00 -4.558857e-01 4.810238e-01 0.000000e+00 0.000000e+00 0.000000e+00 0.000000e+00 4.544031e-02 -5.780118e-01 0.000000e+00 -5.780118e-01 2.749960e-01 0.000000e+00 0.000000e+00 0.000000e+00 0.000000e+00 4.992861e-01 -5.414019e-01 0.000000e+00 -5.414019e-01 -1.748890e-01 0.000000e+00 0.000000e+00 0.000000e+00 0.000000e+00 1.547546e+00 -3.012620e-01 0.000000e+00 -3.012620e-01 1.413742e-02 0.000000e+00 0.000000e+00 0.000000e+00 0.000000e+00 2.363848e+00 9.390488e-02 0.000000e+00 9.390488e-02 -9.224998e-01 0.000000e+00 0.000000e+00 0.000000e+00 0.000000e+00 -2.610102e+00 2.249945e+00 0.000000e+00 2.249945e+00 -1.114608e+00 0.000000e+00 0.000000e+00 0.000000e+00 0.000000e+00 -1.997861e+01 4.664596e+00 0.000000e+00 4.664596e+00 -5.465121e-01 0.000000e+00 0.000000e+00 0.000000e+00 0.000000e+00 -4.289498e+01 5.057604e+00 0.000000e+00 5.057604e+00 8.971185e-01 0.000000e+00 0.000000e+00 0.000000e+00 0.000000e+00 -5.917121e+01 2.524278e+00 0.000000e+00 2.524278e+00 3.356237e+00 0.000000e+00 0.000000e+00 0.000000e+00 0.000000e+00 -4.534491e+01 -5.672511e+00 0.000000e+00 -5.672511e+00 4.559322e+00 0.000000e+00 0.000000e+00 0.000000e+00 0.000000e+00 -2.111295e+01 -8.601717e+00 0.000000e+00 -8.601717e+00 9.858389e-01 0.000000e+00 0.000000e+00 0.000000e+00 0.000000e+00 -3.449288e+00 -3.238248e+00 0.000000e+00 -3.238248e+00 -2.831610e+00 0.000000e+00 0.000000e+00 0.000000e+00 0.000000e+00 -1.571372e+01 -7.644661e+00 0.000000e+00 -7.644661e+00 -2.347015e+00 0.000000e+00 0.000000e+00 0.000000e+00 0.000000e+00 -2.818102e+00 -3.105374e+00 0.000000e+00 -3.105374e+00 -3.089797e+00 0.000000e+00 0.000000e+00 0.000000e+00 0.000000e+00 -8.469426e-01 -8.351924e+00 0.000000e+00 -8.351924e+00 -1.876979e+01 0.000000e+00 0.000000e+00 0.000000e+00 0.000000e+00 1.473537e+00 2.514983e+00 0.000000e+00 2.514983e+00 -1.992658e+00 0.000000e+00 0.000000e+00 0.000000e+00 0.000000e+00 3.122113e+00 1.275873e+00 0.000000e+00 1.275873e+00 -1.987590e+00 0.000000e+00 0.000000e+00 0.000000e+00 0.000000e+00 3.891973e+00 -3.559418e-01 0.000000e+00 -3.559418e-01 -1.048805e+00 0.000000e+00 0.000000e+00 0.000000e+00 0.000000e+00 3.487976e+00 -1.434578e+00 0.000000e+00 -1.434578e+00 7.911596e-01 0.000000e+00 0.000000e+00 0.000000e+00 0.000000e+00 1.833964e+00 -1.284676e+00 0.000000e+00 -1.284676e+00 3.033821e+00 0.000000e+00 0.000000e+00 0.000000e+00 0.000000e+00 5.892197e-02 9.810137e-01 0.000000e+00 9.810137e-01 5.105468e+00 0.000000e+00 0.000000e+00 0.000000e+00 0.000000e+00 4.436233e-02 4.107601e+00 0.000000e+00 4.107601e+00 5.884327e+00 0.000000e+00 0.000000e+00 0.000000e+00 0.000000e+00 4.456916e-01 8.497738e+00 0.000000e+00 8.497738e+00 5.587566e+00 0.000000e+00 0.000000e+00 0.000000e+00 0.000000e+00 1.973766e+00 1.271449e+01 0.000000e+00 1.271449e+01 4.877295e+00 0.000000e+00 0.000000e+00 0.000000e+00 0.000000e+00 7.211908e+00 1.660105e+01 0.000000e+00 1.660105e+01 3.655393e+00 0.000000e+00 0.000000e+00 0.000000e+00 0.000000e+00 9.941155e+00 1.832595e+01 0.000000e+00 1.832595e+01 1.740292e+00 0.000000e+00 0.000000e+00 0.000000e+00 0.000000e+00 1.095821e+01 1.884428e+01 0.000000e+00 1.884428e+01 8.607242e-02 0.000000e+00 0.000000e+00 0.000000e+00 0.000000e+00 1.003269e+01 1.852187e+01 0.000000e+00 1.852187e+01 -6.918669e-01 0.000000e+00 0.000000e+00 0.000000e+00 0.000000e+00 6.829226e+00 1.800561e+01 0.000000e+00 1.800561e+01 -8.781970e-01 0.000000e+00 0.000000e+00 0.000000e+00 0.000000e+00 2.350392e+00 1.795750e+01 0.000000e+00 1.795750e+01 -7.694725e-01 0.000000e+00 0.000000e+00 0.000000e+00 0.000000e+00 -2.216584e+00 1.888824e+01 0.000000e+00 1.888824e+01 -5.510769e-01 0.000000e+00 0.000000e+00 0.000000e+00 0.000000e+00 -4.508524e+00 2.041422e+01 0.000000e+00 2.041422e+01 -1.694453e+00 0.000000e+00 0.000000e+00 0.000000e+00 0.000000e+00 -4.385006e+00 2.082906e+01 0.000000e+00 2.082906e+01 -4.309049e+00 0.000000e+00 0.000000e+00 0.000000e+00 0.000000e+00 -2.301524e+00 1.928024e+01 0.000000e+00 1.928024e+01 -7.237291e+00 0.000000e+00 0.000000e+00 0.000000e+00 0.000000e+00 4.092814e-02 1.607080e+01 0.000000e+00 1.607080e+01 -9.258732e+00 0.000000e+00 0.000000e+00 0.000000e+00 0.000000e+00 1.555606e+00 1.251350e+01 0.000000e+00 1.251350e+01 -1.045053e+01 0.000000e+00 0.000000e+00 0.000000e+00 0.000000e+00 2.300854e+00 8.238903e+00 0.000000e+00 8.238903e+00 -1.101487e+01 0.000000e+00 0.000000e+00 0.000000e+00 0.000000e+00 1.796523e+00 4.102466e+00 0.000000e+00 4.102466e+00 -1.001500e+01 0.000000e+00 0.000000e+00 0.000000e+00 0.000000e+00 2.621971e-01 1.127349e+00 0.000000e+00 1.127349e+00 -8.068722e+00 0.000000e+00 0.000000e+00 0.000000e+00 0.000000e+00 -1.797520e+00 5.307363e-01 0.000000e+00 5.307363e-01 -4.861601e+00 0.000000e+00 0.000000e+00 0.000000e+00 0.000000e+00 -2.292298e+00 1.341846e+00 0.000000e+00 1.341846e+00 -2.939864e+00 0.000000e+00 0.000000e+00 0.000000e+00 0.000000e+00 -1.525371e+00 2.276492e+00 0.000000e+00 2.276492e+00 -2.026618e+00 0.000000e+00 0.000000e+00 0.000000e+00 0.000000e+00 -2.219498e-01 2.768246e+00 0.000000e+00 2.768246e+00 -1.890311e+00 0.000000e+00 0.000000e+00 0.000000e+00 0.000000e+00 8.744732e-03 -6.194212e-01 0.000000e+00 -6.194212e-01 -5.159882e-01 0.000000e+00 0.000000e+00 0.000000e+00 0.000000e+00 -2.074026e+01 -4.260509e+00 0.000000e+00 -4.260509e+00 -1.012086e+02 0.000000e+00 0.000000e+00 0.000000e+00 0.000000e+00 -7.316476e+00 -3.148411e+00 0.000000e+00 -3.148411e+00 -9.365416e+01 0.000000e+00 0.000000e+00 0.000000e+00 0.000000e+00 -5.574559e+00 -2.209754e+00 0.000000e+00 -2.209754e+00 -9.442560e+01 0.000000e+00 0.000000e+00 0.000000e+00 0.000000e+00 -3.264763e+00 -9.030909e-01 0.000000e+00 -9.030909e-01 -9.005128e+01 0.000000e+00 0.000000e+00 0.000000e+00 0.000000e+00 -1.490747e+00 -1.824258e+00 0.000000e+00 -1.824258e+00 -8.338189e+01 0.000000e+00 0.000000e+00 0.000000e+00 0.000000e+00 7.030563e-03 -1.121976e-01 0.000000e+00 -1.121976e-01 -8.073366e+01 0.000000e+00 0.000000e+00 0.000000e+00 0.000000e+00 1.866416e+00 -1.545820e+00 0.000000e+00 -1.545820e+00 -7.394447e+01 0.000000e+00 0.000000e+00 0.000000e+00 0.000000e+00 4.583680e+00 -1.429244e+00 0.000000e+00 -1.429244e+00 -6.533423e+01 0.000000e+00 0.000000e+00 0.000000e+00 0.000000e+00 7.344555e+00 -1.517142e+00 0.000000e+00 -1.517142e+00 -5.718687e+01 0.000000e+00 0.000000e+00 0.000000e+00 0.000000e+00 6.477139e+00 1.211538e-02 0.000000e+00 1.211538e-02 -5.921271e+01 0.000000e+00 0.000000e+00 0.000000e+00 0.000000e+00 8.195569e+00 -6.003581e-02 0.000000e+00 -6.003581e-02 -5.518940e+01 0.000000e+00 0.000000e+00 0.000000e+00 0.000000e+00 1.031987e+01 -1.418163e+00 0.000000e+00 -1.418163e+00 -4.937211e+01 0.000000e+00 0.000000e+00 0.000000e+00 0.000000e+00 1.368840e+01 -1.411664e+00 0.000000e+00 -1.411664e+00 -4.252070e+01 0.000000e+00 0.000000e+00 0.000000e+00 0.000000e+00 1.714874e+01 -1.489174e+00 0.000000e+00 -1.489174e+00 -3.536908e+01 0.000000e+00 0.000000e+00 0.000000e+00 0.000000e+00 2.103244e+01 -1.582224e+00 0.000000e+00 -1.582224e+00 -2.881457e+01 0.000000e+00 0.000000e+00 0.000000e+00 0.000000e+00 1.987613e+01 -4.137832e-01 0.000000e+00 -4.137832e-01 -3.045475e+01 0.000000e+00 0.000000e+00 0.000000e+00 0.000000e+00 2.197216e+01 -5.167803e-01 0.000000e+00 -5.167803e-01 -2.723106e+01 0.000000e+00 0.000000e+00 0.000000e+00 0.000000e+00 2.525924e+01 -1.685915e+00 0.000000e+00 -1.685915e+00 -2.250859e+01 0.000000e+00 0.000000e+00 0.000000e+00 0.000000e+00 2.973192e+01 -1.743744e+00 0.000000e+00 -1.743744e+00 -1.594288e+01 0.000000e+00 0.000000e+00 0.000000e+00 0.000000e+00 3.471624e+01 -1.833628e+00 0.000000e+00 -1.833628e+00 -9.874900e+00 0.000000e+00 0.000000e+00 0.000000e+00 0.000000e+00 3.324303e+01 -7.434049e-01 0.000000e+00 -7.434049e-01 -1.142207e+01 0.000000e+00 0.000000e+00 0.000000e+00 0.000000e+00 3.570792e+01 -7.945443e-01 0.000000e+00 -7.945443e-01 -8.327085e+00 0.000000e+00 0.000000e+00 0.000000e+00 0.000000e+00 4.007169e+01 -1.982260e+00 0.000000e+00 -1.982260e+00 -3.565635e+00 0.000000e+00 0.000000e+00 0.000000e+00 0.000000e+00 4.577801e+01 -2.066976e+00 0.000000e+00 -2.066976e+00 3.370391e+00 0.000000e+00 0.000000e+00 0.000000e+00 0.000000e+00 5.219059e+01 -2.282212e+00 0.000000e+00 -2.282212e+00 1.015119e+01 0.000000e+00 0.000000e+00 0.000000e+00 0.000000e+00 5.015594e+01 -1.046326e+00 0.000000e+00 -1.046326e+00 8.319619e+00 0.000000e+00 0.000000e+00 0.000000e+00 0.000000e+00 5.349166e+01 -1.027019e+00 0.000000e+00 -1.027019e+00 1.202171e+01 0.000000e+00 0.000000e+00 0.000000e+00 0.000000e+00 5.902252e+01 -2.575456e+00 0.000000e+00 -2.575456e+00 1.820396e+01 0.000000e+00 0.000000e+00 0.000000e+00 0.000000e+00 6.041534e+01 -1.262178e+00 0.000000e+00 -1.262178e+00 2.003134e+01 0.000000e+00 0.000000e+00 0.000000e+00 0.000000e+00 6.693745e+01 -2.943428e+00 0.000000e+00 -2.943428e+00 2.621018e+01 0.000000e+00 0.000000e+00 0.000000e+00 0.000000e+00 7.578541e+01 -3.145510e+00 0.000000e+00 -3.145510e+00 3.581912e+01 0.000000e+00 0.000000e+00 0.000000e+00 0.000000e+00 8.643608e+01 -3.441695e+00 0.000000e+00 -3.441695e+00 4.643590e+01 0.000000e+00 0.000000e+00 0.000000e+00 0.000000e+00 8.287926e+01 -1.656588e+00 0.000000e+00 -1.656588e+00 4.363221e+01 0.000000e+00 0.000000e+00 0.000000e+00 0.000000e+00 8.730219e+01 -1.853279e+00 0.000000e+00 -1.853279e+00 4.910233e+01 0.000000e+00 0.000000e+00 0.000000e+00 0.000000e+00 9.893543e+01 -4.786656e+00 0.000000e+00 -4.786656e+00 5.940530e+01 0.000000e+00 0.000000e+00 0.000000e+00 0.000000e+00 1.155238e+02 -6.305159e+00 0.000000e+00 -6.305159e+00 7.532646e+01 0.000000e+00 0.000000e+00 0.000000e+00 0.000000e+00 1.393458e+02 -8.890888e+00 0.000000e+00 -8.890888e+00 9.820513e+01 0.000000e+00 0.000000e+00 0.000000e+00 0.000000e+00 1.790790e+02 -1.873626e+01 0.000000e+00 -1.873626e+01 1.341827e+02 0.000000e+00 0.000000e+00 0.000000e+00 0.000000e+00 1.497809e+02 -8.750946e+00 0.000000e+00 -8.750946e+00 1.185836e+02 0.000000e+00 0.000000e+00 0.000000e+00 0.000000e+00 1.614552e+02 -1.391744e+01 0.000000e+00 -1.391744e+01 1.391135e+02 0.000000e+00 0.000000e+00 0.000000e+00 0.000000e+00 2.636419e+02 -5.384453e+01 0.000000e+00 -5.384453e+01 2.196869e+02 0.000000e+00 0.000000e+00 0.000000e+00 0.000000e+00 5.641647e+01 1.342114e+00 0.000000e+00 1.342114e+00 -2.307758e-01 0.000000e+00 0.000000e+00 0.000000e+00 0.000000e+00 3.372364e+01 2.441734e-01 0.000000e+00 2.441734e-01 -2.010102e+00 0.000000e+00 0.000000e+00 0.000000e+00 0.000000e+00 3.390473e+01 1.687299e+00 0.000000e+00 1.687299e+00 -2.375047e-01 0.000000e+00 0.000000e+00 0.000000e+00 0.000000e+00 2.827580e+01 2.515838e+00 0.000000e+00 2.515838e+00 -3.230882e-01 0.000000e+00 0.000000e+00 0.000000e+00 0.000000e+00 1.935093e+01 3.355307e+00 0.000000e+00 3.355307e+00 -4.611339e-01 0.000000e+00 0.000000e+00 0.000000e+00 0.000000e+00 1.716747e+01 7.439160e+00 0.000000e+00 7.439160e+00 6.836309e-01 0.000000e+00 0.000000e+00 0.000000e+00 0.000000e+00 2.232890e+01 6.329538e+00 0.000000e+00 6.329538e+00 3.617459e+00 0.000000e+00 0.000000e+00 0.000000e+00 0.000000e+00 2.023820e+01 8.387029e+00 0.000000e+00 8.387029e+00 4.225042e+00 0.000000e+00 0.000000e+00 0.000000e+00 0.000000e+00 1.725172e+01 4.420370e+00 0.000000e+00 4.420370e+00 7.092685e-01 0.000000e+00 0.000000e+00 0.000000e+00 0.000000e+00 -7.981256e-02 3.145650e+00 0.000000e+00 3.145650e+00 1.733465e+00 0.000000e+00 0.000000e+00 0.000000e+00 0.000000e+00 -1.137042e+00 1.348116e+00 0.000000e+00 1.348116e+00 -8.563987e-01 0.000000e+00 0.000000e+00 0.000000e+00 0.000000e+00 -3.476559e+00 -6.441384e-01 0.000000e+00 -6.441384e-01 -5.826206e-01 0.000000e+00 0.000000e+00 0.000000e+00 0.000000e+00 -7.549318e+00 3.806682e-02 0.000000e+00 3.806682e-02 1.518739e+00 0.000000e+00 0.000000e+00 0.000000e+00 0.000000e+00 -2.275777e+00 -1.126755e+00 0.000000e+00 -1.126755e+00 -9.675346e-02 0.000000e+00 0.000000e+00 0.000000e+00 0.000000e+00 3.851866e-02 -6.445872e-01 0.000000e+00 -6.445872e-01 -1.806618e+00 0.000000e+00 0.000000e+00 0.000000e+00 0.000000e+00 5.072373e-01 -1.828196e-01 0.000000e+00 -1.828196e-01 -3.218150e+00 0.000000e+00 0.000000e+00 0.000000e+00 0.000000e+00 2.754477e-02 -5.002844e-02 0.000000e+00 -5.002844e-02 -2.421920e+00 0.000000e+00 0.000000e+00 0.000000e+00 0.000000e+00 3.029921e-01 8.439502e-01 0.000000e+00 8.439502e-01 -1.663135e+00 0.000000e+00 0.000000e+00 0.000000e+00 0.000000e+00 -3.239984e-01 6.916827e-01 0.000000e+00 6.916827e-01 1.961712e+00 0.000000e+00 0.000000e+00 0.000000e+00 0.000000e+00 -3.129098e-01 -1.257882e-01 0.000000e+00 -1.257882e-01 2.862834e+00 0.000000e+00 0.000000e+00 0.000000e+00 0.000000e+00 -1.980092e+01 4.939033e+00 0.000000e+00 4.939033e+00 2.399394e-03 0.000000e+00 0.000000e+00 0.000000e+00 0.000000e+00 -3.145560e+01 5.064560e+00 0.000000e+00 5.064560e+00 -1.157412e-01 0.000000e+00 0.000000e+00 0.000000e+00 0.000000e+00 5.389960e-01 -4.554810e-01 0.000000e+00 -4.554810e-01 1.846133e-01 0.000000e+00 0.000000e+00 0.000000e+00 0.000000e+00 4.263666e-02 3.353686e-01 0.000000e+00 3.353686e-01 2.669181e-01 0.000000e+00 0.000000e+00 0.000000e+00 0.000000e+00 1.222890e+00 1.077929e+00 0.000000e+00 1.077929e+00 -1.199759e+00 0.000000e+00 0.000000e+00 0.000000e+00 0.000000e+00 -2.491795e+00 1.515941e+00 0.000000e+00 1.515941e+00 1.814142e-01 0.000000e+00 0.000000e+00 0.000000e+00 0.000000e+00 -9.694756e+00 3.575964e+00 0.000000e+00 3.575964e+00 -1.075543e+00 0.000000e+00 0.000000e+00 0.000000e+00 0.000000e+00 -2.831614e+01 5.012111e+00 0.000000e+00 5.012111e+00 -3.925040e-01 0.000000e+00 0.000000e+00 0.000000e+00 0.000000e+00 -5.300228e+01 4.201220e+00 0.000000e+00 4.201220e+00 1.984220e+00 0.000000e+00 0.000000e+00 0.000000e+00 0.000000e+00 -3.711930e+01 -6.119201e+00 0.000000e+00 -6.119201e+00 -1.115168e+00 0.000000e+00 0.000000e+00 0.000000e+00 0.000000e+00 -5.741240e+01 -1.256105e+00 0.000000e+00 -1.256105e+00 4.540557e+00 0.000000e+00 0.000000e+00 0.000000e+00 0.000000e+00 -2.702743e+01 -6.683527e+00 0.000000e+00 -6.683527e+00 -1.830889e+00 0.000000e+00 0.000000e+00 0.000000e+00 0.000000e+00 2.779812e+00 1.351263e+00 0.000000e+00 1.351263e+00 -1.476609e+00 0.000000e+00 0.000000e+00 0.000000e+00 0.000000e+00 8.802314e-01 2.224432e+00 0.000000e+00 2.224432e+00 -1.561848e+00 0.000000e+00 0.000000e+00 0.000000e+00 0.000000e+00 3.961412e+00 -2.667806e-01 0.000000e+00 -2.667806e-01 -8.987384e-01 0.000000e+00 0.000000e+00 0.000000e+00 0.000000e+00 3.877175e+00 -1.796871e+00 0.000000e+00 -1.796871e+00 6.346464e-01 0.000000e+00 0.000000e+00 0.000000e+00 0.000000e+00 3.216086e+00 -2.527801e+00 0.000000e+00 -2.527801e+00 3.354559e+00 0.000000e+00 0.000000e+00 0.000000e+00 0.000000e+00 1.675578e+00 -1.183320e+00 0.000000e+00 -1.183320e+00 6.705476e+00 0.000000e+00 0.000000e+00 0.000000e+00 0.000000e+00 1.246993e+00 2.137440e+00 0.000000e+00 2.137440e+00 8.408144e+00 0.000000e+00 0.000000e+00 0.000000e+00 0.000000e+00 2.323797e+00 6.464939e+00 0.000000e+00 6.464939e+00 1.002805e+01 0.000000e+00 0.000000e+00 0.000000e+00 0.000000e+00 4.760684e+00 1.097309e+01 